V -t * -v 1.0a5 -a 0
A -t * -n 1 -p 0 -o 0x7fffffff -c 30 -a 1
A -t * -h 1 -m 1073741823 -s 0
n -t * -a 0 -s 0 -S UP -v circle -c black -i black
n -t * -a 1 -s 1 -S UP -v circle -c black -i black
n -t * -a 2 -s 2 -S UP -v circle -c black -i black
n -t * -a 3 -s 3 -S UP -v circle -c black -i black
l -t * -s 0 -d 2 -S UP -r 2000000 -D 0.01 -c black
l -t * -s 1 -d 2 -S UP -r 2000000 -D 0.01 -c black
l -t * -s 2 -d 3 -S UP -r 1500000 -D 0.02 -c black
q -t * -s 2 -d 0 -a 0.5
q -t * -s 0 -d 2 -a 0.5
q -t * -s 2 -d 1 -a 0.5
q -t * -s 1 -d 2 -a 0.5
q -t * -s 3 -d 2 -a 0.5
q -t * -s 2 -d 3 -a 0.5
+ -t 1 -s 1 -d 2 -p cbr -e 1000 -c 1 -i 0 -a 1 -x {1.0 3.1 0 ------- null}
- -t 1 -s 1 -d 2 -p cbr -e 1000 -c 1 -i 0 -a 1 -x {1.0 3.1 0 ------- null}
h -t 1 -s 1 -d 2 -p cbr -e 1000 -c 1 -i 0 -a 1 -x {1.0 3.1 -1 ------- null}
+ -t 1.008 -s 1 -d 2 -p cbr -e 1000 -c 1 -i 1 -a 1 -x {1.0 3.1 1 ------- null}
- -t 1.008 -s 1 -d 2 -p cbr -e 1000 -c 1 -i 1 -a 1 -x {1.0 3.1 1 ------- null}
h -t 1.008 -s 1 -d 2 -p cbr -e 1000 -c 1 -i 1 -a 1 -x {1.0 3.1 -1 ------- null}
r -t 1.014 -s 1 -d 2 -p cbr -e 1000 -c 1 -i 0 -a 1 -x {1.0 3.1 0 ------- null}
+ -t 1.014 -s 2 -d 3 -p cbr -e 1000 -c 1 -i 0 -a 1 -x {1.0 3.1 0 ------- null}
- -t 1.014 -s 2 -d 3 -p cbr -e 1000 -c 1 -i 0 -a 1 -x {1.0 3.1 0 ------- null}
h -t 1.014 -s 2 -d 3 -p cbr -e 1000 -c 1 -i 0 -a 1 -x {1.0 3.1 -1 ------- null}
+ -t 1.016 -s 1 -d 2 -p cbr -e 1000 -c 1 -i 2 -a 1 -x {1.0 3.1 2 ------- null}
- -t 1.016 -s 1 -d 2 -p cbr -e 1000 -c 1 -i 2 -a 1 -x {1.0 3.1 2 ------- null}
h -t 1.016 -s 1 -d 2 -p cbr -e 1000 -c 1 -i 2 -a 1 -x {1.0 3.1 -1 ------- null}
r -t 1.022 -s 1 -d 2 -p cbr -e 1000 -c 1 -i 1 -a 1 -x {1.0 3.1 1 ------- null}
+ -t 1.022 -s 2 -d 3 -p cbr -e 1000 -c 1 -i 1 -a 1 -x {1.0 3.1 1 ------- null}
- -t 1.022 -s 2 -d 3 -p cbr -e 1000 -c 1 -i 1 -a 1 -x {1.0 3.1 1 ------- null}
h -t 1.022 -s 2 -d 3 -p cbr -e 1000 -c 1 -i 1 -a 1 -x {1.0 3.1 -1 ------- null}
+ -t 1.024 -s 1 -d 2 -p cbr -e 1000 -c 1 -i 3 -a 1 -x {1.0 3.1 3 ------- null}
- -t 1.024 -s 1 -d 2 -p cbr -e 1000 -c 1 -i 3 -a 1 -x {1.0 3.1 3 ------- null}
h -t 1.024 -s 1 -d 2 -p cbr -e 1000 -c 1 -i 3 -a 1 -x {1.0 3.1 -1 ------- null}
r -t 1.03 -s 1 -d 2 -p cbr -e 1000 -c 1 -i 2 -a 1 -x {1.0 3.1 2 ------- null}
+ -t 1.03 -s 2 -d 3 -p cbr -e 1000 -c 1 -i 2 -a 1 -x {1.0 3.1 2 ------- null}
- -t 1.03 -s 2 -d 3 -p cbr -e 1000 -c 1 -i 2 -a 1 -x {1.0 3.1 2 ------- null}
h -t 1.03 -s 2 -d 3 -p cbr -e 1000 -c 1 -i 2 -a 1 -x {1.0 3.1 -1 ------- null}
+ -t 1.032 -s 1 -d 2 -p cbr -e 1000 -c 1 -i 4 -a 1 -x {1.0 3.1 4 ------- null}
- -t 1.032 -s 1 -d 2 -p cbr -e 1000 -c 1 -i 4 -a 1 -x {1.0 3.1 4 ------- null}
h -t 1.032 -s 1 -d 2 -p cbr -e 1000 -c 1 -i 4 -a 1 -x {1.0 3.1 -1 ------- null}
r -t 1.038 -s 1 -d 2 -p cbr -e 1000 -c 1 -i 3 -a 1 -x {1.0 3.1 3 ------- null}
+ -t 1.038 -s 2 -d 3 -p cbr -e 1000 -c 1 -i 3 -a 1 -x {1.0 3.1 3 ------- null}
- -t 1.038 -s 2 -d 3 -p cbr -e 1000 -c 1 -i 3 -a 1 -x {1.0 3.1 3 ------- null}
h -t 1.038 -s 2 -d 3 -p cbr -e 1000 -c 1 -i 3 -a 1 -x {1.0 3.1 -1 ------- null}
r -t 1.03933333333333 -s 2 -d 3 -p cbr -e 1000 -c 1 -i 0 -a 1 -x {1.0 3.1 0 ------- null}
+ -t 1.04 -s 1 -d 2 -p cbr -e 1000 -c 1 -i 5 -a 1 -x {1.0 3.1 5 ------- null}
- -t 1.04 -s 1 -d 2 -p cbr -e 1000 -c 1 -i 5 -a 1 -x {1.0 3.1 5 ------- null}
h -t 1.04 -s 1 -d 2 -p cbr -e 1000 -c 1 -i 5 -a 1 -x {1.0 3.1 -1 ------- null}
r -t 1.046 -s 1 -d 2 -p cbr -e 1000 -c 1 -i 4 -a 1 -x {1.0 3.1 4 ------- null}
+ -t 1.046 -s 2 -d 3 -p cbr -e 1000 -c 1 -i 4 -a 1 -x {1.0 3.1 4 ------- null}
- -t 1.046 -s 2 -d 3 -p cbr -e 1000 -c 1 -i 4 -a 1 -x {1.0 3.1 4 ------- null}
h -t 1.046 -s 2 -d 3 -p cbr -e 1000 -c 1 -i 4 -a 1 -x {1.0 3.1 -1 ------- null}
r -t 1.04733333333333 -s 2 -d 3 -p cbr -e 1000 -c 1 -i 1 -a 1 -x {1.0 3.1 1 ------- null}
+ -t 1.048 -s 1 -d 2 -p cbr -e 1000 -c 1 -i 6 -a 1 -x {1.0 3.1 6 ------- null}
- -t 1.048 -s 1 -d 2 -p cbr -e 1000 -c 1 -i 6 -a 1 -x {1.0 3.1 6 ------- null}
h -t 1.048 -s 1 -d 2 -p cbr -e 1000 -c 1 -i 6 -a 1 -x {1.0 3.1 -1 ------- null}
r -t 1.054 -s 1 -d 2 -p cbr -e 1000 -c 1 -i 5 -a 1 -x {1.0 3.1 5 ------- null}
+ -t 1.054 -s 2 -d 3 -p cbr -e 1000 -c 1 -i 5 -a 1 -x {1.0 3.1 5 ------- null}
- -t 1.054 -s 2 -d 3 -p cbr -e 1000 -c 1 -i 5 -a 1 -x {1.0 3.1 5 ------- null}
h -t 1.054 -s 2 -d 3 -p cbr -e 1000 -c 1 -i 5 -a 1 -x {1.0 3.1 -1 ------- null}
r -t 1.05533333333333 -s 2 -d 3 -p cbr -e 1000 -c 1 -i 2 -a 1 -x {1.0 3.1 2 ------- null}
+ -t 1.056 -s 1 -d 2 -p cbr -e 1000 -c 1 -i 7 -a 1 -x {1.0 3.1 7 ------- null}
- -t 1.056 -s 1 -d 2 -p cbr -e 1000 -c 1 -i 7 -a 1 -x {1.0 3.1 7 ------- null}
h -t 1.056 -s 1 -d 2 -p cbr -e 1000 -c 1 -i 7 -a 1 -x {1.0 3.1 -1 ------- null}
r -t 1.062 -s 1 -d 2 -p cbr -e 1000 -c 1 -i 6 -a 1 -x {1.0 3.1 6 ------- null}
+ -t 1.062 -s 2 -d 3 -p cbr -e 1000 -c 1 -i 6 -a 1 -x {1.0 3.1 6 ------- null}
- -t 1.062 -s 2 -d 3 -p cbr -e 1000 -c 1 -i 6 -a 1 -x {1.0 3.1 6 ------- null}
h -t 1.062 -s 2 -d 3 -p cbr -e 1000 -c 1 -i 6 -a 1 -x {1.0 3.1 -1 ------- null}
r -t 1.06333333333333 -s 2 -d 3 -p cbr -e 1000 -c 1 -i 3 -a 1 -x {1.0 3.1 3 ------- null}
+ -t 1.064 -s 1 -d 2 -p cbr -e 1000 -c 1 -i 8 -a 1 -x {1.0 3.1 8 ------- null}
- -t 1.064 -s 1 -d 2 -p cbr -e 1000 -c 1 -i 8 -a 1 -x {1.0 3.1 8 ------- null}
h -t 1.064 -s 1 -d 2 -p cbr -e 1000 -c 1 -i 8 -a 1 -x {1.0 3.1 -1 ------- null}
r -t 1.07 -s 1 -d 2 -p cbr -e 1000 -c 1 -i 7 -a 1 -x {1.0 3.1 7 ------- null}
+ -t 1.07 -s 2 -d 3 -p cbr -e 1000 -c 1 -i 7 -a 1 -x {1.0 3.1 7 ------- null}
- -t 1.07 -s 2 -d 3 -p cbr -e 1000 -c 1 -i 7 -a 1 -x {1.0 3.1 7 ------- null}
h -t 1.07 -s 2 -d 3 -p cbr -e 1000 -c 1 -i 7 -a 1 -x {1.0 3.1 -1 ------- null}
r -t 1.07133333333333 -s 2 -d 3 -p cbr -e 1000 -c 1 -i 4 -a 1 -x {1.0 3.1 4 ------- null}
+ -t 1.072 -s 1 -d 2 -p cbr -e 1000 -c 1 -i 9 -a 1 -x {1.0 3.1 9 ------- null}
- -t 1.072 -s 1 -d 2 -p cbr -e 1000 -c 1 -i 9 -a 1 -x {1.0 3.1 9 ------- null}
h -t 1.072 -s 1 -d 2 -p cbr -e 1000 -c 1 -i 9 -a 1 -x {1.0 3.1 -1 ------- null}
r -t 1.078 -s 1 -d 2 -p cbr -e 1000 -c 1 -i 8 -a 1 -x {1.0 3.1 8 ------- null}
+ -t 1.078 -s 2 -d 3 -p cbr -e 1000 -c 1 -i 8 -a 1 -x {1.0 3.1 8 ------- null}
- -t 1.078 -s 2 -d 3 -p cbr -e 1000 -c 1 -i 8 -a 1 -x {1.0 3.1 8 ------- null}
h -t 1.078 -s 2 -d 3 -p cbr -e 1000 -c 1 -i 8 -a 1 -x {1.0 3.1 -1 ------- null}
r -t 1.07933333333333 -s 2 -d 3 -p cbr -e 1000 -c 1 -i 5 -a 1 -x {1.0 3.1 5 ------- null}
+ -t 1.08 -s 1 -d 2 -p cbr -e 1000 -c 1 -i 10 -a 1 -x {1.0 3.1 10 ------- null}
- -t 1.08 -s 1 -d 2 -p cbr -e 1000 -c 1 -i 10 -a 1 -x {1.0 3.1 10 ------- null}
h -t 1.08 -s 1 -d 2 -p cbr -e 1000 -c 1 -i 10 -a 1 -x {1.0 3.1 -1 ------- null}
r -t 1.086 -s 1 -d 2 -p cbr -e 1000 -c 1 -i 9 -a 1 -x {1.0 3.1 9 ------- null}
+ -t 1.086 -s 2 -d 3 -p cbr -e 1000 -c 1 -i 9 -a 1 -x {1.0 3.1 9 ------- null}
- -t 1.086 -s 2 -d 3 -p cbr -e 1000 -c 1 -i 9 -a 1 -x {1.0 3.1 9 ------- null}
h -t 1.086 -s 2 -d 3 -p cbr -e 1000 -c 1 -i 9 -a 1 -x {1.0 3.1 -1 ------- null}
r -t 1.08733333333333 -s 2 -d 3 -p cbr -e 1000 -c 1 -i 6 -a 1 -x {1.0 3.1 6 ------- null}
+ -t 1.088 -s 1 -d 2 -p cbr -e 1000 -c 1 -i 11 -a 1 -x {1.0 3.1 11 ------- null}
- -t 1.088 -s 1 -d 2 -p cbr -e 1000 -c 1 -i 11 -a 1 -x {1.0 3.1 11 ------- null}
h -t 1.088 -s 1 -d 2 -p cbr -e 1000 -c 1 -i 11 -a 1 -x {1.0 3.1 -1 ------- null}
r -t 1.094 -s 1 -d 2 -p cbr -e 1000 -c 1 -i 10 -a 1 -x {1.0 3.1 10 ------- null}
+ -t 1.094 -s 2 -d 3 -p cbr -e 1000 -c 1 -i 10 -a 1 -x {1.0 3.1 10 ------- null}
- -t 1.094 -s 2 -d 3 -p cbr -e 1000 -c 1 -i 10 -a 1 -x {1.0 3.1 10 ------- null}
h -t 1.094 -s 2 -d 3 -p cbr -e 1000 -c 1 -i 10 -a 1 -x {1.0 3.1 -1 ------- null}
r -t 1.09533333333333 -s 2 -d 3 -p cbr -e 1000 -c 1 -i 7 -a 1 -x {1.0 3.1 7 ------- null}
+ -t 1.096 -s 1 -d 2 -p cbr -e 1000 -c 1 -i 12 -a 1 -x {1.0 3.1 12 ------- null}
- -t 1.096 -s 1 -d 2 -p cbr -e 1000 -c 1 -i 12 -a 1 -x {1.0 3.1 12 ------- null}
h -t 1.096 -s 1 -d 2 -p cbr -e 1000 -c 1 -i 12 -a 1 -x {1.0 3.1 -1 ------- null}
r -t 1.102 -s 1 -d 2 -p cbr -e 1000 -c 1 -i 11 -a 1 -x {1.0 3.1 11 ------- null}
+ -t 1.102 -s 2 -d 3 -p cbr -e 1000 -c 1 -i 11 -a 1 -x {1.0 3.1 11 ------- null}
- -t 1.102 -s 2 -d 3 -p cbr -e 1000 -c 1 -i 11 -a 1 -x {1.0 3.1 11 ------- null}
h -t 1.102 -s 2 -d 3 -p cbr -e 1000 -c 1 -i 11 -a 1 -x {1.0 3.1 -1 ------- null}
r -t 1.10333333333333 -s 2 -d 3 -p cbr -e 1000 -c 1 -i 8 -a 1 -x {1.0 3.1 8 ------- null}
+ -t 1.104 -s 1 -d 2 -p cbr -e 1000 -c 1 -i 13 -a 1 -x {1.0 3.1 13 ------- null}
- -t 1.104 -s 1 -d 2 -p cbr -e 1000 -c 1 -i 13 -a 1 -x {1.0 3.1 13 ------- null}
h -t 1.104 -s 1 -d 2 -p cbr -e 1000 -c 1 -i 13 -a 1 -x {1.0 3.1 -1 ------- null}
r -t 1.11 -s 1 -d 2 -p cbr -e 1000 -c 1 -i 12 -a 1 -x {1.0 3.1 12 ------- null}
+ -t 1.11 -s 2 -d 3 -p cbr -e 1000 -c 1 -i 12 -a 1 -x {1.0 3.1 12 ------- null}
- -t 1.11 -s 2 -d 3 -p cbr -e 1000 -c 1 -i 12 -a 1 -x {1.0 3.1 12 ------- null}
h -t 1.11 -s 2 -d 3 -p cbr -e 1000 -c 1 -i 12 -a 1 -x {1.0 3.1 -1 ------- null}
r -t 1.11133333333333 -s 2 -d 3 -p cbr -e 1000 -c 1 -i 9 -a 1 -x {1.0 3.1 9 ------- null}
+ -t 1.112 -s 1 -d 2 -p cbr -e 1000 -c 1 -i 14 -a 1 -x {1.0 3.1 14 ------- null}
- -t 1.112 -s 1 -d 2 -p cbr -e 1000 -c 1 -i 14 -a 1 -x {1.0 3.1 14 ------- null}
h -t 1.112 -s 1 -d 2 -p cbr -e 1000 -c 1 -i 14 -a 1 -x {1.0 3.1 -1 ------- null}
r -t 1.118 -s 1 -d 2 -p cbr -e 1000 -c 1 -i 13 -a 1 -x {1.0 3.1 13 ------- null}
+ -t 1.118 -s 2 -d 3 -p cbr -e 1000 -c 1 -i 13 -a 1 -x {1.0 3.1 13 ------- null}
- -t 1.118 -s 2 -d 3 -p cbr -e 1000 -c 1 -i 13 -a 1 -x {1.0 3.1 13 ------- null}
h -t 1.118 -s 2 -d 3 -p cbr -e 1000 -c 1 -i 13 -a 1 -x {1.0 3.1 -1 ------- null}
r -t 1.11933333333333 -s 2 -d 3 -p cbr -e 1000 -c 1 -i 10 -a 1 -x {1.0 3.1 10 ------- null}
+ -t 1.12 -s 1 -d 2 -p cbr -e 1000 -c 1 -i 15 -a 1 -x {1.0 3.1 15 ------- null}
- -t 1.12 -s 1 -d 2 -p cbr -e 1000 -c 1 -i 15 -a 1 -x {1.0 3.1 15 ------- null}
h -t 1.12 -s 1 -d 2 -p cbr -e 1000 -c 1 -i 15 -a 1 -x {1.0 3.1 -1 ------- null}
r -t 1.126 -s 1 -d 2 -p cbr -e 1000 -c 1 -i 14 -a 1 -x {1.0 3.1 14 ------- null}
+ -t 1.126 -s 2 -d 3 -p cbr -e 1000 -c 1 -i 14 -a 1 -x {1.0 3.1 14 ------- null}
- -t 1.126 -s 2 -d 3 -p cbr -e 1000 -c 1 -i 14 -a 1 -x {1.0 3.1 14 ------- null}
h -t 1.126 -s 2 -d 3 -p cbr -e 1000 -c 1 -i 14 -a 1 -x {1.0 3.1 -1 ------- null}
r -t 1.12733333333333 -s 2 -d 3 -p cbr -e 1000 -c 1 -i 11 -a 1 -x {1.0 3.1 11 ------- null}
+ -t 1.128 -s 1 -d 2 -p cbr -e 1000 -c 1 -i 16 -a 1 -x {1.0 3.1 16 ------- null}
- -t 1.128 -s 1 -d 2 -p cbr -e 1000 -c 1 -i 16 -a 1 -x {1.0 3.1 16 ------- null}
h -t 1.128 -s 1 -d 2 -p cbr -e 1000 -c 1 -i 16 -a 1 -x {1.0 3.1 -1 ------- null}
r -t 1.134 -s 1 -d 2 -p cbr -e 1000 -c 1 -i 15 -a 1 -x {1.0 3.1 15 ------- null}
+ -t 1.134 -s 2 -d 3 -p cbr -e 1000 -c 1 -i 15 -a 1 -x {1.0 3.1 15 ------- null}
- -t 1.134 -s 2 -d 3 -p cbr -e 1000 -c 1 -i 15 -a 1 -x {1.0 3.1 15 ------- null}
h -t 1.134 -s 2 -d 3 -p cbr -e 1000 -c 1 -i 15 -a 1 -x {1.0 3.1 -1 ------- null}
r -t 1.13533333333333 -s 2 -d 3 -p cbr -e 1000 -c 1 -i 12 -a 1 -x {1.0 3.1 12 ------- null}
+ -t 1.136 -s 1 -d 2 -p cbr -e 1000 -c 1 -i 17 -a 1 -x {1.0 3.1 17 ------- null}
- -t 1.136 -s 1 -d 2 -p cbr -e 1000 -c 1 -i 17 -a 1 -x {1.0 3.1 17 ------- null}
h -t 1.136 -s 1 -d 2 -p cbr -e 1000 -c 1 -i 17 -a 1 -x {1.0 3.1 -1 ------- null}
r -t 1.142 -s 1 -d 2 -p cbr -e 1000 -c 1 -i 16 -a 1 -x {1.0 3.1 16 ------- null}
+ -t 1.142 -s 2 -d 3 -p cbr -e 1000 -c 1 -i 16 -a 1 -x {1.0 3.1 16 ------- null}
- -t 1.142 -s 2 -d 3 -p cbr -e 1000 -c 1 -i 16 -a 1 -x {1.0 3.1 16 ------- null}
h -t 1.142 -s 2 -d 3 -p cbr -e 1000 -c 1 -i 16 -a 1 -x {1.0 3.1 -1 ------- null}
r -t 1.14333333333333 -s 2 -d 3 -p cbr -e 1000 -c 1 -i 13 -a 1 -x {1.0 3.1 13 ------- null}
+ -t 1.144 -s 1 -d 2 -p cbr -e 1000 -c 1 -i 18 -a 1 -x {1.0 3.1 18 ------- null}
- -t 1.144 -s 1 -d 2 -p cbr -e 1000 -c 1 -i 18 -a 1 -x {1.0 3.1 18 ------- null}
h -t 1.144 -s 1 -d 2 -p cbr -e 1000 -c 1 -i 18 -a 1 -x {1.0 3.1 -1 ------- null}
r -t 1.15 -s 1 -d 2 -p cbr -e 1000 -c 1 -i 17 -a 1 -x {1.0 3.1 17 ------- null}
+ -t 1.15 -s 2 -d 3 -p cbr -e 1000 -c 1 -i 17 -a 1 -x {1.0 3.1 17 ------- null}
- -t 1.15 -s 2 -d 3 -p cbr -e 1000 -c 1 -i 17 -a 1 -x {1.0 3.1 17 ------- null}
h -t 1.15 -s 2 -d 3 -p cbr -e 1000 -c 1 -i 17 -a 1 -x {1.0 3.1 -1 ------- null}
r -t 1.15133333333333 -s 2 -d 3 -p cbr -e 1000 -c 1 -i 14 -a 1 -x {1.0 3.1 14 ------- null}
+ -t 1.152 -s 1 -d 2 -p cbr -e 1000 -c 1 -i 19 -a 1 -x {1.0 3.1 19 ------- null}
- -t 1.152 -s 1 -d 2 -p cbr -e 1000 -c 1 -i 19 -a 1 -x {1.0 3.1 19 ------- null}
h -t 1.152 -s 1 -d 2 -p cbr -e 1000 -c 1 -i 19 -a 1 -x {1.0 3.1 -1 ------- null}
r -t 1.158 -s 1 -d 2 -p cbr -e 1000 -c 1 -i 18 -a 1 -x {1.0 3.1 18 ------- null}
+ -t 1.158 -s 2 -d 3 -p cbr -e 1000 -c 1 -i 18 -a 1 -x {1.0 3.1 18 ------- null}
- -t 1.158 -s 2 -d 3 -p cbr -e 1000 -c 1 -i 18 -a 1 -x {1.0 3.1 18 ------- null}
h -t 1.158 -s 2 -d 3 -p cbr -e 1000 -c 1 -i 18 -a 1 -x {1.0 3.1 -1 ------- null}
r -t 1.15933333333333 -s 2 -d 3 -p cbr -e 1000 -c 1 -i 15 -a 1 -x {1.0 3.1 15 ------- null}
+ -t 1.16 -s 1 -d 2 -p cbr -e 1000 -c 1 -i 20 -a 1 -x {1.0 3.1 20 ------- null}
- -t 1.16 -s 1 -d 2 -p cbr -e 1000 -c 1 -i 20 -a 1 -x {1.0 3.1 20 ------- null}
h -t 1.16 -s 1 -d 2 -p cbr -e 1000 -c 1 -i 20 -a 1 -x {1.0 3.1 -1 ------- null}
r -t 1.166 -s 1 -d 2 -p cbr -e 1000 -c 1 -i 19 -a 1 -x {1.0 3.1 19 ------- null}
+ -t 1.166 -s 2 -d 3 -p cbr -e 1000 -c 1 -i 19 -a 1 -x {1.0 3.1 19 ------- null}
- -t 1.166 -s 2 -d 3 -p cbr -e 1000 -c 1 -i 19 -a 1 -x {1.0 3.1 19 ------- null}
h -t 1.166 -s 2 -d 3 -p cbr -e 1000 -c 1 -i 19 -a 1 -x {1.0 3.1 -1 ------- null}
r -t 1.16733333333333 -s 2 -d 3 -p cbr -e 1000 -c 1 -i 16 -a 1 -x {1.0 3.1 16 ------- null}
+ -t 1.168 -s 1 -d 2 -p cbr -e 1000 -c 1 -i 21 -a 1 -x {1.0 3.1 21 ------- null}
- -t 1.168 -s 1 -d 2 -p cbr -e 1000 -c 1 -i 21 -a 1 -x {1.0 3.1 21 ------- null}
h -t 1.168 -s 1 -d 2 -p cbr -e 1000 -c 1 -i 21 -a 1 -x {1.0 3.1 -1 ------- null}
r -t 1.174 -s 1 -d 2 -p cbr -e 1000 -c 1 -i 20 -a 1 -x {1.0 3.1 20 ------- null}
+ -t 1.174 -s 2 -d 3 -p cbr -e 1000 -c 1 -i 20 -a 1 -x {1.0 3.1 20 ------- null}
- -t 1.174 -s 2 -d 3 -p cbr -e 1000 -c 1 -i 20 -a 1 -x {1.0 3.1 20 ------- null}
h -t 1.174 -s 2 -d 3 -p cbr -e 1000 -c 1 -i 20 -a 1 -x {1.0 3.1 -1 ------- null}
r -t 1.17533333333333 -s 2 -d 3 -p cbr -e 1000 -c 1 -i 17 -a 1 -x {1.0 3.1 17 ------- null}
+ -t 1.176 -s 1 -d 2 -p cbr -e 1000 -c 1 -i 22 -a 1 -x {1.0 3.1 22 ------- null}
- -t 1.176 -s 1 -d 2 -p cbr -e 1000 -c 1 -i 22 -a 1 -x {1.0 3.1 22 ------- null}
h -t 1.176 -s 1 -d 2 -p cbr -e 1000 -c 1 -i 22 -a 1 -x {1.0 3.1 -1 ------- null}
r -t 1.182 -s 1 -d 2 -p cbr -e 1000 -c 1 -i 21 -a 1 -x {1.0 3.1 21 ------- null}
+ -t 1.182 -s 2 -d 3 -p cbr -e 1000 -c 1 -i 21 -a 1 -x {1.0 3.1 21 ------- null}
- -t 1.182 -s 2 -d 3 -p cbr -e 1000 -c 1 -i 21 -a 1 -x {1.0 3.1 21 ------- null}
h -t 1.182 -s 2 -d 3 -p cbr -e 1000 -c 1 -i 21 -a 1 -x {1.0 3.1 -1 ------- null}
r -t 1.18333333333333 -s 2 -d 3 -p cbr -e 1000 -c 1 -i 18 -a 1 -x {1.0 3.1 18 ------- null}
+ -t 1.184 -s 1 -d 2 -p cbr -e 1000 -c 1 -i 23 -a 1 -x {1.0 3.1 23 ------- null}
- -t 1.184 -s 1 -d 2 -p cbr -e 1000 -c 1 -i 23 -a 1 -x {1.0 3.1 23 ------- null}
h -t 1.184 -s 1 -d 2 -p cbr -e 1000 -c 1 -i 23 -a 1 -x {1.0 3.1 -1 ------- null}
r -t 1.19 -s 1 -d 2 -p cbr -e 1000 -c 1 -i 22 -a 1 -x {1.0 3.1 22 ------- null}
+ -t 1.19 -s 2 -d 3 -p cbr -e 1000 -c 1 -i 22 -a 1 -x {1.0 3.1 22 ------- null}
- -t 1.19 -s 2 -d 3 -p cbr -e 1000 -c 1 -i 22 -a 1 -x {1.0 3.1 22 ------- null}
h -t 1.19 -s 2 -d 3 -p cbr -e 1000 -c 1 -i 22 -a 1 -x {1.0 3.1 -1 ------- null}
r -t 1.19133333333333 -s 2 -d 3 -p cbr -e 1000 -c 1 -i 19 -a 1 -x {1.0 3.1 19 ------- null}
+ -t 1.192 -s 1 -d 2 -p cbr -e 1000 -c 1 -i 24 -a 1 -x {1.0 3.1 24 ------- null}
- -t 1.192 -s 1 -d 2 -p cbr -e 1000 -c 1 -i 24 -a 1 -x {1.0 3.1 24 ------- null}
h -t 1.192 -s 1 -d 2 -p cbr -e 1000 -c 1 -i 24 -a 1 -x {1.0 3.1 -1 ------- null}
r -t 1.198 -s 1 -d 2 -p cbr -e 1000 -c 1 -i 23 -a 1 -x {1.0 3.1 23 ------- null}
+ -t 1.198 -s 2 -d 3 -p cbr -e 1000 -c 1 -i 23 -a 1 -x {1.0 3.1 23 ------- null}
- -t 1.198 -s 2 -d 3 -p cbr -e 1000 -c 1 -i 23 -a 1 -x {1.0 3.1 23 ------- null}
h -t 1.198 -s 2 -d 3 -p cbr -e 1000 -c 1 -i 23 -a 1 -x {1.0 3.1 -1 ------- null}
r -t 1.19933333333333 -s 2 -d 3 -p cbr -e 1000 -c 1 -i 20 -a 1 -x {1.0 3.1 20 ------- null}
+ -t 1.2 -s 1 -d 2 -p cbr -e 1000 -c 1 -i 25 -a 1 -x {1.0 3.1 25 ------- null}
- -t 1.2 -s 1 -d 2 -p cbr -e 1000 -c 1 -i 25 -a 1 -x {1.0 3.1 25 ------- null}
h -t 1.2 -s 1 -d 2 -p cbr -e 1000 -c 1 -i 25 -a 1 -x {1.0 3.1 -1 ------- null}
r -t 1.206 -s 1 -d 2 -p cbr -e 1000 -c 1 -i 24 -a 1 -x {1.0 3.1 24 ------- null}
+ -t 1.206 -s 2 -d 3 -p cbr -e 1000 -c 1 -i 24 -a 1 -x {1.0 3.1 24 ------- null}
- -t 1.206 -s 2 -d 3 -p cbr -e 1000 -c 1 -i 24 -a 1 -x {1.0 3.1 24 ------- null}
h -t 1.206 -s 2 -d 3 -p cbr -e 1000 -c 1 -i 24 -a 1 -x {1.0 3.1 -1 ------- null}
r -t 1.20733333333333 -s 2 -d 3 -p cbr -e 1000 -c 1 -i 21 -a 1 -x {1.0 3.1 21 ------- null}
+ -t 1.208 -s 1 -d 2 -p cbr -e 1000 -c 1 -i 26 -a 1 -x {1.0 3.1 26 ------- null}
- -t 1.208 -s 1 -d 2 -p cbr -e 1000 -c 1 -i 26 -a 1 -x {1.0 3.1 26 ------- null}
h -t 1.208 -s 1 -d 2 -p cbr -e 1000 -c 1 -i 26 -a 1 -x {1.0 3.1 -1 ------- null}
r -t 1.214 -s 1 -d 2 -p cbr -e 1000 -c 1 -i 25 -a 1 -x {1.0 3.1 25 ------- null}
+ -t 1.214 -s 2 -d 3 -p cbr -e 1000 -c 1 -i 25 -a 1 -x {1.0 3.1 25 ------- null}
- -t 1.214 -s 2 -d 3 -p cbr -e 1000 -c 1 -i 25 -a 1 -x {1.0 3.1 25 ------- null}
h -t 1.214 -s 2 -d 3 -p cbr -e 1000 -c 1 -i 25 -a 1 -x {1.0 3.1 -1 ------- null}
r -t 1.21533333333333 -s 2 -d 3 -p cbr -e 1000 -c 1 -i 22 -a 1 -x {1.0 3.1 22 ------- null}
+ -t 1.216 -s 1 -d 2 -p cbr -e 1000 -c 1 -i 27 -a 1 -x {1.0 3.1 27 ------- null}
- -t 1.216 -s 1 -d 2 -p cbr -e 1000 -c 1 -i 27 -a 1 -x {1.0 3.1 27 ------- null}
h -t 1.216 -s 1 -d 2 -p cbr -e 1000 -c 1 -i 27 -a 1 -x {1.0 3.1 -1 ------- null}
r -t 1.222 -s 1 -d 2 -p cbr -e 1000 -c 1 -i 26 -a 1 -x {1.0 3.1 26 ------- null}
+ -t 1.222 -s 2 -d 3 -p cbr -e 1000 -c 1 -i 26 -a 1 -x {1.0 3.1 26 ------- null}
- -t 1.222 -s 2 -d 3 -p cbr -e 1000 -c 1 -i 26 -a 1 -x {1.0 3.1 26 ------- null}
h -t 1.222 -s 2 -d 3 -p cbr -e 1000 -c 1 -i 26 -a 1 -x {1.0 3.1 -1 ------- null}
r -t 1.22333333333333 -s 2 -d 3 -p cbr -e 1000 -c 1 -i 23 -a 1 -x {1.0 3.1 23 ------- null}
+ -t 1.224 -s 1 -d 2 -p cbr -e 1000 -c 1 -i 28 -a 1 -x {1.0 3.1 28 ------- null}
- -t 1.224 -s 1 -d 2 -p cbr -e 1000 -c 1 -i 28 -a 1 -x {1.0 3.1 28 ------- null}
h -t 1.224 -s 1 -d 2 -p cbr -e 1000 -c 1 -i 28 -a 1 -x {1.0 3.1 -1 ------- null}
r -t 1.23 -s 1 -d 2 -p cbr -e 1000 -c 1 -i 27 -a 1 -x {1.0 3.1 27 ------- null}
+ -t 1.23 -s 2 -d 3 -p cbr -e 1000 -c 1 -i 27 -a 1 -x {1.0 3.1 27 ------- null}
- -t 1.23 -s 2 -d 3 -p cbr -e 1000 -c 1 -i 27 -a 1 -x {1.0 3.1 27 ------- null}
h -t 1.23 -s 2 -d 3 -p cbr -e 1000 -c 1 -i 27 -a 1 -x {1.0 3.1 -1 ------- null}
r -t 1.23133333333333 -s 2 -d 3 -p cbr -e 1000 -c 1 -i 24 -a 1 -x {1.0 3.1 24 ------- null}
+ -t 1.232 -s 1 -d 2 -p cbr -e 1000 -c 1 -i 29 -a 1 -x {1.0 3.1 29 ------- null}
- -t 1.232 -s 1 -d 2 -p cbr -e 1000 -c 1 -i 29 -a 1 -x {1.0 3.1 29 ------- null}
h -t 1.232 -s 1 -d 2 -p cbr -e 1000 -c 1 -i 29 -a 1 -x {1.0 3.1 -1 ------- null}
r -t 1.238 -s 1 -d 2 -p cbr -e 1000 -c 1 -i 28 -a 1 -x {1.0 3.1 28 ------- null}
+ -t 1.238 -s 2 -d 3 -p cbr -e 1000 -c 1 -i 28 -a 1 -x {1.0 3.1 28 ------- null}
- -t 1.238 -s 2 -d 3 -p cbr -e 1000 -c 1 -i 28 -a 1 -x {1.0 3.1 28 ------- null}
h -t 1.238 -s 2 -d 3 -p cbr -e 1000 -c 1 -i 28 -a 1 -x {1.0 3.1 -1 ------- null}
r -t 1.23933333333333 -s 2 -d 3 -p cbr -e 1000 -c 1 -i 25 -a 1 -x {1.0 3.1 25 ------- null}
+ -t 1.24 -s 1 -d 2 -p cbr -e 1000 -c 1 -i 30 -a 1 -x {1.0 3.1 30 ------- null}
- -t 1.24 -s 1 -d 2 -p cbr -e 1000 -c 1 -i 30 -a 1 -x {1.0 3.1 30 ------- null}
h -t 1.24 -s 1 -d 2 -p cbr -e 1000 -c 1 -i 30 -a 1 -x {1.0 3.1 -1 ------- null}
r -t 1.246 -s 1 -d 2 -p cbr -e 1000 -c 1 -i 29 -a 1 -x {1.0 3.1 29 ------- null}
+ -t 1.246 -s 2 -d 3 -p cbr -e 1000 -c 1 -i 29 -a 1 -x {1.0 3.1 29 ------- null}
- -t 1.246 -s 2 -d 3 -p cbr -e 1000 -c 1 -i 29 -a 1 -x {1.0 3.1 29 ------- null}
h -t 1.246 -s 2 -d 3 -p cbr -e 1000 -c 1 -i 29 -a 1 -x {1.0 3.1 -1 ------- null}
r -t 1.24733333333333 -s 2 -d 3 -p cbr -e 1000 -c 1 -i 26 -a 1 -x {1.0 3.1 26 ------- null}
+ -t 1.248 -s 1 -d 2 -p cbr -e 1000 -c 1 -i 31 -a 1 -x {1.0 3.1 31 ------- null}
- -t 1.248 -s 1 -d 2 -p cbr -e 1000 -c 1 -i 31 -a 1 -x {1.0 3.1 31 ------- null}
h -t 1.248 -s 1 -d 2 -p cbr -e 1000 -c 1 -i 31 -a 1 -x {1.0 3.1 -1 ------- null}
r -t 1.254 -s 1 -d 2 -p cbr -e 1000 -c 1 -i 30 -a 1 -x {1.0 3.1 30 ------- null}
+ -t 1.254 -s 2 -d 3 -p cbr -e 1000 -c 1 -i 30 -a 1 -x {1.0 3.1 30 ------- null}
- -t 1.254 -s 2 -d 3 -p cbr -e 1000 -c 1 -i 30 -a 1 -x {1.0 3.1 30 ------- null}
h -t 1.254 -s 2 -d 3 -p cbr -e 1000 -c 1 -i 30 -a 1 -x {1.0 3.1 -1 ------- null}
r -t 1.25533333333333 -s 2 -d 3 -p cbr -e 1000 -c 1 -i 27 -a 1 -x {1.0 3.1 27 ------- null}
+ -t 1.256 -s 1 -d 2 -p cbr -e 1000 -c 1 -i 32 -a 1 -x {1.0 3.1 32 ------- null}
- -t 1.256 -s 1 -d 2 -p cbr -e 1000 -c 1 -i 32 -a 1 -x {1.0 3.1 32 ------- null}
h -t 1.256 -s 1 -d 2 -p cbr -e 1000 -c 1 -i 32 -a 1 -x {1.0 3.1 -1 ------- null}
r -t 1.262 -s 1 -d 2 -p cbr -e 1000 -c 1 -i 31 -a 1 -x {1.0 3.1 31 ------- null}
+ -t 1.262 -s 2 -d 3 -p cbr -e 1000 -c 1 -i 31 -a 1 -x {1.0 3.1 31 ------- null}
- -t 1.262 -s 2 -d 3 -p cbr -e 1000 -c 1 -i 31 -a 1 -x {1.0 3.1 31 ------- null}
h -t 1.262 -s 2 -d 3 -p cbr -e 1000 -c 1 -i 31 -a 1 -x {1.0 3.1 -1 ------- null}
r -t 1.26333333333333 -s 2 -d 3 -p cbr -e 1000 -c 1 -i 28 -a 1 -x {1.0 3.1 28 ------- null}
+ -t 1.264 -s 1 -d 2 -p cbr -e 1000 -c 1 -i 33 -a 1 -x {1.0 3.1 33 ------- null}
- -t 1.264 -s 1 -d 2 -p cbr -e 1000 -c 1 -i 33 -a 1 -x {1.0 3.1 33 ------- null}
h -t 1.264 -s 1 -d 2 -p cbr -e 1000 -c 1 -i 33 -a 1 -x {1.0 3.1 -1 ------- null}
r -t 1.27 -s 1 -d 2 -p cbr -e 1000 -c 1 -i 32 -a 1 -x {1.0 3.1 32 ------- null}
+ -t 1.27 -s 2 -d 3 -p cbr -e 1000 -c 1 -i 32 -a 1 -x {1.0 3.1 32 ------- null}
- -t 1.27 -s 2 -d 3 -p cbr -e 1000 -c 1 -i 32 -a 1 -x {1.0 3.1 32 ------- null}
h -t 1.27 -s 2 -d 3 -p cbr -e 1000 -c 1 -i 32 -a 1 -x {1.0 3.1 -1 ------- null}
r -t 1.27133333333333 -s 2 -d 3 -p cbr -e 1000 -c 1 -i 29 -a 1 -x {1.0 3.1 29 ------- null}
+ -t 1.272 -s 1 -d 2 -p cbr -e 1000 -c 1 -i 34 -a 1 -x {1.0 3.1 34 ------- null}
- -t 1.272 -s 1 -d 2 -p cbr -e 1000 -c 1 -i 34 -a 1 -x {1.0 3.1 34 ------- null}
h -t 1.272 -s 1 -d 2 -p cbr -e 1000 -c 1 -i 34 -a 1 -x {1.0 3.1 -1 ------- null}
r -t 1.278 -s 1 -d 2 -p cbr -e 1000 -c 1 -i 33 -a 1 -x {1.0 3.1 33 ------- null}
+ -t 1.278 -s 2 -d 3 -p cbr -e 1000 -c 1 -i 33 -a 1 -x {1.0 3.1 33 ------- null}
- -t 1.278 -s 2 -d 3 -p cbr -e 1000 -c 1 -i 33 -a 1 -x {1.0 3.1 33 ------- null}
h -t 1.278 -s 2 -d 3 -p cbr -e 1000 -c 1 -i 33 -a 1 -x {1.0 3.1 -1 ------- null}
r -t 1.27933333333333 -s 2 -d 3 -p cbr -e 1000 -c 1 -i 30 -a 1 -x {1.0 3.1 30 ------- null}
+ -t 1.28 -s 1 -d 2 -p cbr -e 1000 -c 1 -i 35 -a 1 -x {1.0 3.1 35 ------- null}
- -t 1.28 -s 1 -d 2 -p cbr -e 1000 -c 1 -i 35 -a 1 -x {1.0 3.1 35 ------- null}
h -t 1.28 -s 1 -d 2 -p cbr -e 1000 -c 1 -i 35 -a 1 -x {1.0 3.1 -1 ------- null}
r -t 1.286 -s 1 -d 2 -p cbr -e 1000 -c 1 -i 34 -a 1 -x {1.0 3.1 34 ------- null}
+ -t 1.286 -s 2 -d 3 -p cbr -e 1000 -c 1 -i 34 -a 1 -x {1.0 3.1 34 ------- null}
- -t 1.286 -s 2 -d 3 -p cbr -e 1000 -c 1 -i 34 -a 1 -x {1.0 3.1 34 ------- null}
h -t 1.286 -s 2 -d 3 -p cbr -e 1000 -c 1 -i 34 -a 1 -x {1.0 3.1 -1 ------- null}
r -t 1.28733333333333 -s 2 -d 3 -p cbr -e 1000 -c 1 -i 31 -a 1 -x {1.0 3.1 31 ------- null}
+ -t 1.288 -s 1 -d 2 -p cbr -e 1000 -c 1 -i 36 -a 1 -x {1.0 3.1 36 ------- null}
- -t 1.288 -s 1 -d 2 -p cbr -e 1000 -c 1 -i 36 -a 1 -x {1.0 3.1 36 ------- null}
h -t 1.288 -s 1 -d 2 -p cbr -e 1000 -c 1 -i 36 -a 1 -x {1.0 3.1 -1 ------- null}
r -t 1.294 -s 1 -d 2 -p cbr -e 1000 -c 1 -i 35 -a 1 -x {1.0 3.1 35 ------- null}
+ -t 1.294 -s 2 -d 3 -p cbr -e 1000 -c 1 -i 35 -a 1 -x {1.0 3.1 35 ------- null}
- -t 1.294 -s 2 -d 3 -p cbr -e 1000 -c 1 -i 35 -a 1 -x {1.0 3.1 35 ------- null}
h -t 1.294 -s 2 -d 3 -p cbr -e 1000 -c 1 -i 35 -a 1 -x {1.0 3.1 -1 ------- null}
r -t 1.29533333333333 -s 2 -d 3 -p cbr -e 1000 -c 1 -i 32 -a 1 -x {1.0 3.1 32 ------- null}
+ -t 1.296 -s 1 -d 2 -p cbr -e 1000 -c 1 -i 37 -a 1 -x {1.0 3.1 37 ------- null}
- -t 1.296 -s 1 -d 2 -p cbr -e 1000 -c 1 -i 37 -a 1 -x {1.0 3.1 37 ------- null}
h -t 1.296 -s 1 -d 2 -p cbr -e 1000 -c 1 -i 37 -a 1 -x {1.0 3.1 -1 ------- null}
r -t 1.302 -s 1 -d 2 -p cbr -e 1000 -c 1 -i 36 -a 1 -x {1.0 3.1 36 ------- null}
+ -t 1.302 -s 2 -d 3 -p cbr -e 1000 -c 1 -i 36 -a 1 -x {1.0 3.1 36 ------- null}
- -t 1.302 -s 2 -d 3 -p cbr -e 1000 -c 1 -i 36 -a 1 -x {1.0 3.1 36 ------- null}
h -t 1.302 -s 2 -d 3 -p cbr -e 1000 -c 1 -i 36 -a 1 -x {1.0 3.1 -1 ------- null}
r -t 1.30333333333333 -s 2 -d 3 -p cbr -e 1000 -c 1 -i 33 -a 1 -x {1.0 3.1 33 ------- null}
+ -t 1.304 -s 1 -d 2 -p cbr -e 1000 -c 1 -i 38 -a 1 -x {1.0 3.1 38 ------- null}
- -t 1.304 -s 1 -d 2 -p cbr -e 1000 -c 1 -i 38 -a 1 -x {1.0 3.1 38 ------- null}
h -t 1.304 -s 1 -d 2 -p cbr -e 1000 -c 1 -i 38 -a 1 -x {1.0 3.1 -1 ------- null}
r -t 1.31 -s 1 -d 2 -p cbr -e 1000 -c 1 -i 37 -a 1 -x {1.0 3.1 37 ------- null}
+ -t 1.31 -s 2 -d 3 -p cbr -e 1000 -c 1 -i 37 -a 1 -x {1.0 3.1 37 ------- null}
- -t 1.31 -s 2 -d 3 -p cbr -e 1000 -c 1 -i 37 -a 1 -x {1.0 3.1 37 ------- null}
h -t 1.31 -s 2 -d 3 -p cbr -e 1000 -c 1 -i 37 -a 1 -x {1.0 3.1 -1 ------- null}
r -t 1.31133333333333 -s 2 -d 3 -p cbr -e 1000 -c 1 -i 34 -a 1 -x {1.0 3.1 34 ------- null}
+ -t 1.312 -s 1 -d 2 -p cbr -e 1000 -c 1 -i 39 -a 1 -x {1.0 3.1 39 ------- null}
- -t 1.312 -s 1 -d 2 -p cbr -e 1000 -c 1 -i 39 -a 1 -x {1.0 3.1 39 ------- null}
h -t 1.312 -s 1 -d 2 -p cbr -e 1000 -c 1 -i 39 -a 1 -x {1.0 3.1 -1 ------- null}
r -t 1.318 -s 1 -d 2 -p cbr -e 1000 -c 1 -i 38 -a 1 -x {1.0 3.1 38 ------- null}
+ -t 1.318 -s 2 -d 3 -p cbr -e 1000 -c 1 -i 38 -a 1 -x {1.0 3.1 38 ------- null}
- -t 1.318 -s 2 -d 3 -p cbr -e 1000 -c 1 -i 38 -a 1 -x {1.0 3.1 38 ------- null}
h -t 1.318 -s 2 -d 3 -p cbr -e 1000 -c 1 -i 38 -a 1 -x {1.0 3.1 -1 ------- null}
r -t 1.31933333333333 -s 2 -d 3 -p cbr -e 1000 -c 1 -i 35 -a 1 -x {1.0 3.1 35 ------- null}
+ -t 1.32 -s 1 -d 2 -p cbr -e 1000 -c 1 -i 40 -a 1 -x {1.0 3.1 40 ------- null}
- -t 1.32 -s 1 -d 2 -p cbr -e 1000 -c 1 -i 40 -a 1 -x {1.0 3.1 40 ------- null}
h -t 1.32 -s 1 -d 2 -p cbr -e 1000 -c 1 -i 40 -a 1 -x {1.0 3.1 -1 ------- null}
r -t 1.326 -s 1 -d 2 -p cbr -e 1000 -c 1 -i 39 -a 1 -x {1.0 3.1 39 ------- null}
+ -t 1.326 -s 2 -d 3 -p cbr -e 1000 -c 1 -i 39 -a 1 -x {1.0 3.1 39 ------- null}
- -t 1.326 -s 2 -d 3 -p cbr -e 1000 -c 1 -i 39 -a 1 -x {1.0 3.1 39 ------- null}
h -t 1.326 -s 2 -d 3 -p cbr -e 1000 -c 1 -i 39 -a 1 -x {1.0 3.1 -1 ------- null}
r -t 1.32733333333333 -s 2 -d 3 -p cbr -e 1000 -c 1 -i 36 -a 1 -x {1.0 3.1 36 ------- null}
+ -t 1.328 -s 1 -d 2 -p cbr -e 1000 -c 1 -i 41 -a 1 -x {1.0 3.1 41 ------- null}
- -t 1.328 -s 1 -d 2 -p cbr -e 1000 -c 1 -i 41 -a 1 -x {1.0 3.1 41 ------- null}
h -t 1.328 -s 1 -d 2 -p cbr -e 1000 -c 1 -i 41 -a 1 -x {1.0 3.1 -1 ------- null}
r -t 1.334 -s 1 -d 2 -p cbr -e 1000 -c 1 -i 40 -a 1 -x {1.0 3.1 40 ------- null}
+ -t 1.334 -s 2 -d 3 -p cbr -e 1000 -c 1 -i 40 -a 1 -x {1.0 3.1 40 ------- null}
- -t 1.334 -s 2 -d 3 -p cbr -e 1000 -c 1 -i 40 -a 1 -x {1.0 3.1 40 ------- null}
h -t 1.334 -s 2 -d 3 -p cbr -e 1000 -c 1 -i 40 -a 1 -x {1.0 3.1 -1 ------- null}
r -t 1.33533333333333 -s 2 -d 3 -p cbr -e 1000 -c 1 -i 37 -a 1 -x {1.0 3.1 37 ------- null}
+ -t 1.336 -s 1 -d 2 -p cbr -e 1000 -c 1 -i 42 -a 1 -x {1.0 3.1 42 ------- null}
- -t 1.336 -s 1 -d 2 -p cbr -e 1000 -c 1 -i 42 -a 1 -x {1.0 3.1 42 ------- null}
h -t 1.336 -s 1 -d 2 -p cbr -e 1000 -c 1 -i 42 -a 1 -x {1.0 3.1 -1 ------- null}
r -t 1.342 -s 1 -d 2 -p cbr -e 1000 -c 1 -i 41 -a 1 -x {1.0 3.1 41 ------- null}
+ -t 1.342 -s 2 -d 3 -p cbr -e 1000 -c 1 -i 41 -a 1 -x {1.0 3.1 41 ------- null}
- -t 1.342 -s 2 -d 3 -p cbr -e 1000 -c 1 -i 41 -a 1 -x {1.0 3.1 41 ------- null}
h -t 1.342 -s 2 -d 3 -p cbr -e 1000 -c 1 -i 41 -a 1 -x {1.0 3.1 -1 ------- null}
r -t 1.34333333333333 -s 2 -d 3 -p cbr -e 1000 -c 1 -i 38 -a 1 -x {1.0 3.1 38 ------- null}
+ -t 1.344 -s 1 -d 2 -p cbr -e 1000 -c 1 -i 43 -a 1 -x {1.0 3.1 43 ------- null}
- -t 1.344 -s 1 -d 2 -p cbr -e 1000 -c 1 -i 43 -a 1 -x {1.0 3.1 43 ------- null}
h -t 1.344 -s 1 -d 2 -p cbr -e 1000 -c 1 -i 43 -a 1 -x {1.0 3.1 -1 ------- null}
r -t 1.35 -s 1 -d 2 -p cbr -e 1000 -c 1 -i 42 -a 1 -x {1.0 3.1 42 ------- null}
+ -t 1.35 -s 2 -d 3 -p cbr -e 1000 -c 1 -i 42 -a 1 -x {1.0 3.1 42 ------- null}
- -t 1.35 -s 2 -d 3 -p cbr -e 1000 -c 1 -i 42 -a 1 -x {1.0 3.1 42 ------- null}
h -t 1.35 -s 2 -d 3 -p cbr -e 1000 -c 1 -i 42 -a 1 -x {1.0 3.1 -1 ------- null}
r -t 1.35133333333333 -s 2 -d 3 -p cbr -e 1000 -c 1 -i 39 -a 1 -x {1.0 3.1 39 ------- null}
+ -t 1.352 -s 1 -d 2 -p cbr -e 1000 -c 1 -i 44 -a 1 -x {1.0 3.1 44 ------- null}
- -t 1.352 -s 1 -d 2 -p cbr -e 1000 -c 1 -i 44 -a 1 -x {1.0 3.1 44 ------- null}
h -t 1.352 -s 1 -d 2 -p cbr -e 1000 -c 1 -i 44 -a 1 -x {1.0 3.1 -1 ------- null}
r -t 1.358 -s 1 -d 2 -p cbr -e 1000 -c 1 -i 43 -a 1 -x {1.0 3.1 43 ------- null}
+ -t 1.358 -s 2 -d 3 -p cbr -e 1000 -c 1 -i 43 -a 1 -x {1.0 3.1 43 ------- null}
- -t 1.358 -s 2 -d 3 -p cbr -e 1000 -c 1 -i 43 -a 1 -x {1.0 3.1 43 ------- null}
h -t 1.358 -s 2 -d 3 -p cbr -e 1000 -c 1 -i 43 -a 1 -x {1.0 3.1 -1 ------- null}
r -t 1.35933333333333 -s 2 -d 3 -p cbr -e 1000 -c 1 -i 40 -a 1 -x {1.0 3.1 40 ------- null}
+ -t 1.36 -s 1 -d 2 -p cbr -e 1000 -c 1 -i 45 -a 1 -x {1.0 3.1 45 ------- null}
- -t 1.36 -s 1 -d 2 -p cbr -e 1000 -c 1 -i 45 -a 1 -x {1.0 3.1 45 ------- null}
h -t 1.36 -s 1 -d 2 -p cbr -e 1000 -c 1 -i 45 -a 1 -x {1.0 3.1 -1 ------- null}
r -t 1.366 -s 1 -d 2 -p cbr -e 1000 -c 1 -i 44 -a 1 -x {1.0 3.1 44 ------- null}
+ -t 1.366 -s 2 -d 3 -p cbr -e 1000 -c 1 -i 44 -a 1 -x {1.0 3.1 44 ------- null}
- -t 1.366 -s 2 -d 3 -p cbr -e 1000 -c 1 -i 44 -a 1 -x {1.0 3.1 44 ------- null}
h -t 1.366 -s 2 -d 3 -p cbr -e 1000 -c 1 -i 44 -a 1 -x {1.0 3.1 -1 ------- null}
r -t 1.36733333333333 -s 2 -d 3 -p cbr -e 1000 -c 1 -i 41 -a 1 -x {1.0 3.1 41 ------- null}