+ 1 1 2 cbr 1000 ------- 1 1.0 3.1 0 0
- 1 1 2 cbr 1000 ------- 1 1.0 3.1 0 0
+ 1.008 1 2 cbr 1000 ------- 1 1.0 3.1 1 1
- 1.008 1 2 cbr 1000 ------- 1 1.0 3.1 1 1
r 1.014 1 2 cbr 1000 ------- 1 1.0 3.1 0 0
+ 1.014 2 3 cbr 1000 ------- 1 1.0 3.1 0 0
- 1.014 2 3 cbr 1000 ------- 1 1.0 3.1 0 0
+ 1.016 1 2 cbr 1000 ------- 1 1.0 3.1 2 2
- 1.016 1 2 cbr 1000 ------- 1 1.0 3.1 2 2
r 1.022 1 2 cbr 1000 ------- 1 1.0 3.1 1 1
+ 1.022 2 3 cbr 1000 ------- 1 1.0 3.1 1 1
- 1.022 2 3 cbr 1000 ------- 1 1.0 3.1 1 1
+ 1.024 1 2 cbr 1000 ------- 1 1.0 3.1 3 3
- 1.024 1 2 cbr 1000 ------- 1 1.0 3.1 3 3
r 1.03 1 2 cbr 1000 ------- 1 1.0 3.1 2 2
+ 1.03 2 3 cbr 1000 ------- 1 1.0 3.1 2 2
- 1.03 2 3 cbr 1000 ------- 1 1.0 3.1 2 2
+ 1.032 1 2 cbr 1000 ------- 1 1.0 3.1 4 4
- 1.032 1 2 cbr 1000 ------- 1 1.0 3.1 4 4
r 1.038 1 2 cbr 1000 ------- 1 1.0 3.1 3 3
+ 1.038 2 3 cbr 1000 ------- 1 1.0 3.1 3 3
- 1.038 2 3 cbr 1000 ------- 1 1.0 3.1 3 3
r 1.039333 2 3 cbr 1000 ------- 1 1.0 3.1 0 0
+ 1.04 1 2 cbr 1000 ------- 1 1.0 3.1 5 5
- 1.04 1 2 cbr 1000 ------- 1 1.0 3.1 5 5
r 1.046 1 2 cbr 1000 ------- 1 1.0 3.1 4 4
+ 1.046 2 3 cbr 1000 ------- 1 1.0 3.1 4 4
- 1.046 2 3 cbr 1000 ------- 1 1.0 3.1 4 4
r 1.047333 2 3 cbr 1000 ------- 1 1.0 3.1 1 1
+ 1.048 1 2 cbr 1000 ------- 1 1.0 3.1 6 6
- 1.048 1 2 cbr 1000 ------- 1 1.0 3.1 6 6
r 1.054 1 2 cbr 1000 ------- 1 1.0 3.1 5 5
+ 1.054 2 3 cbr 1000 ------- 1 1.0 3.1 5 5
- 1.054 2 3 cbr 1000 ------- 1 1.0 3.1 5 5
r 1.055333 2 3 cbr 1000 ------- 1 1.0 3.1 2 2
+ 1.056 1 2 cbr 1000 ------- 1 1.0 3.1 7 7
- 1.056 1 2 cbr 1000 ------- 1 1.0 3.1 7 7
r 1.062 1 2 cbr 1000 ------- 1 1.0 3.1 6 6
+ 1.062 2 3 cbr 1000 ------- 1 1.0 3.1 6 6
- 1.062 2 3 cbr 1000 ------- 1 1.0 3.1 6 6
r 1.063333 2 3 cbr 1000 ------- 1 1.0 3.1 3 3
+ 1.064 1 2 cbr 1000 ------- 1 1.0 3.1 8 8
- 1.064 1 2 cbr 1000 ------- 1 1.0 3.1 8 8
r 1.07 1 2 cbr 1000 ------- 1 1.0 3.1 7 7
+ 1.07 2 3 cbr 1000 ------- 1 1.0 3.1 7 7
- 1.07 2 3 cbr 1000 ------- 1 1.0 3.1 7 7
r 1.071333 2 3 cbr 1000 ------- 1 1.0 3.1 4 4
+ 1.072 1 2 cbr 1000 ------- 1 1.0 3.1 9 9
- 1.072 1 2 cbr 1000 ------- 1 1.0 3.1 9 9
r 1.078 1 2 cbr 1000 ------- 1 1.0 3.1 8 8
+ 1.078 2 3 cbr 1000 ------- 1 1.0 3.1 8 8
- 1.078 2 3 cbr 1000 ------- 1 1.0 3.1 8 8
r 1.079333 2 3 cbr 1000 ------- 1 1.0 3.1 5 5
+ 1.08 1 2 cbr 1000 ------- 1 1.0 3.1 10 10
- 1.08 1 2 cbr 1000 ------- 1 1.0 3.1 10 10
r 1.086 1 2 cbr 1000 ------- 1 1.0 3.1 9 9
+ 1.086 2 3 cbr 1000 ------- 1 1.0 3.1 9 9
- 1.086 2 3 cbr 1000 ------- 1 1.0 3.1 9 9
r 1.087333 2 3 cbr 1000 ------- 1 1.0 3.1 6 6
+ 1.088 1 2 cbr 1000 ------- 1 1.0 3.1 11 11
- 1.088 1 2 cbr 1000 ------- 1 1.0 3.1 11 11
r 1.094 1 2 cbr 1000 ------- 1 1.0 3.1 10 10
+ 1.094 2 3 cbr 1000 ------- 1 1.0 3.1 10 10
- 1.094 2 3 cbr 1000 ------- 1 1.0 3.1 10 10
r 1.095333 2 3 cbr 1000 ------- 1 1.0 3.1 7 7
+ 1.096 1 2 cbr 1000 ------- 1 1.0 3.1 12 12
- 1.096 1 2 cbr 1000 ------- 1 1.0 3.1 12 12
r 1.102 1 2 cbr 1000 ------- 1 1.0 3.1 11 11
+ 1.102 2 3 cbr 1000 ------- 1 1.0 3.1 11 11
- 1.102 2 3 cbr 1000 ------- 1 1.0 3.1 11 11
r 1.103333 2 3 cbr 1000 ------- 1 1.0 3.1 8 8
+ 1.104 1 2 cbr 1000 ------- 1 1.0 3.1 13 13
- 1.104 1 2 cbr 1000 ------- 1 1.0 3.1 13 13
r 1.11 1 2 cbr 1000 ------- 1 1.0 3.1 12 12
+ 1.11 2 3 cbr 1000 ------- 1 1.0 3.1 12 12
- 1.11 2 3 cbr 1000 ------- 1 1.0 3.1 12 12
r 1.111333 2 3 cbr 1000 ------- 1 1.0 3.1 9 9
+ 1.112 1 2 cbr 1000 ------- 1 1.0 3.1 14 14
- 1.112 1 2 cbr 1000 ------- 1 1.0 3.1 14 14
r 1.118 1 2 cbr 1000 ------- 1 1.0 3.1 13 13
+ 1.118 2 3 cbr 1000 ------- 1 1.0 3.1 13 13
- 1.118 2 3 cbr 1000 ------- 1 1.0 3.1 13 13
r 1.119333 2 3 cbr 1000 ------- 1 1.0 3.1 10 10
+ 1.12 1 2 cbr 1000 ------- 1 1.0 3.1 15 15
- 1.12 1 2 cbr 1000 ------- 1 1.0 3.1 15 15
r 1.126 1 2 cbr 1000 ------- 1 1.0 3.1 14 14
+ 1.126 2 3 cbr 1000 ------- 1 1.0 3.1 14 14
- 1.126 2 3 cbr 1000 ------- 1 1.0 3.1 14 14
r 1.127333 2 3 cbr 1000 ------- 1 1.0 3.1 11 11
+ 1.128 1 2 cbr 1000 ------- 1 1.0 3.1 16 16
- 1.128 1 2 cbr 1000 ------- 1 1.0 3.1 16 16
r 1.134 1 2 cbr 1000 ------- 1 1.0 3.1 15 15
+ 1.134 2 3 cbr 1000 ------- 1 1.0 3.1 15 15
- 1.134 2 3 cbr 1000 ------- 1 1.0 3.1 15 15
r 1.135333 2 3 cbr 1000 ------- 1 1.0 3.1 12 12
+ 1.136 1 2 cbr 1000 ------- 1 1.0 3.1 17 17
- 1.136 1 2 cbr 1000 ------- 1 1.0 3.1 17 17
r 1.142 1 2 cbr 1000 ------- 1 1.0 3.1 16 16
+ 1.142 2 3 cbr 1000 ------- 1 1.0 3.1 16 16
- 1.142 2 3 cbr 1000 ------- 1 1.0 3.1 16 16
r 1.143333 2 3 cbr 1000 ------- 1 1.0 3.1 13 13
+ 1.144 1 2 cbr 1000 ------- 1 1.0 3.1 18 18
- 1.144 1 2 cbr 1000 ------- 1 1.0 3.1 18 18
r 1.15 1 2 cbr 1000 ------- 1 1.0 3.1 17 17
+ 1.15 2 3 cbr 1000 ------- 1 1.0 3.1 17 17
- 1.15 2 3 cbr 1000 ------- 1 1.0 3.1 17 17
r 1.151333 2 3 cbr 1000 ------- 1 1.0 3.1 14 14
+ 1.152 1 2 cbr 1000 ------- 1 1.0 3.1 19 19
- 1.152 1 2 cbr 1000 ------- 1 1.0 3.1 19 19
r 1.158 1 2 cbr 1000 ------- 1 1.0 3.1 18 18
+ 1.158 2 3 cbr 1000 ------- 1 1.0 3.1 18 18
- 1.158 2 3 cbr 1000 ------- 1 1.0 3.1 18 18
r 1.159333 2 3 cbr 1000 ------- 1 1.0 3.1 15 15
+ 1.16 1 2 cbr 1000 ------- 1 1.0 3.1 20 20
- 1.16 1 2 cbr 1000 ------- 1 1.0 3.1 20 20
r 1.166 1 2 cbr 1000 ------- 1 1.0 3.1 19 19
+ 1.166 2 3 cbr 1000 ------- 1 1.0 3.1 19 19
- 1.166 2 3 cbr 1000 ------- 1 1.0 3.1 19 19
r 1.167333 2 3 cbr 1000 ------- 1 1.0 3.1 16 16
+ 1.168 1 2 cbr 1000 ------- 1 1.0 3.1 21 21
- 1.168 1 2 cbr 1000 ------- 1 1.0 3.1 21 21
r 1.174 1 2 cbr 1000 ------- 1 1.0 3.1 20 20
+ 1.174 2 3 cbr 1000 ------- 1 1.0 3.1 20 20
- 1.174 2 3 cbr 1000 ------- 1 1.0 3.1 20 20
r 1.175333 2 3 cbr 1000 ------- 1 1.0 3.1 17 17
+ 1.176 1 2 cbr 1000 ------- 1 1.0 3.1 22 22
- 1.176 1 2 cbr 1000 ------- 1 1.0 3.1 22 22
r 1.182 1 2 cbr 1000 ------- 1 1.0 3.1 21 21
+ 1.182 2 3 cbr 1000 ------- 1 1.0 3.1 21 21
- 1.182 2 3 cbr 1000 ------- 1 1.0 3.1 21 21
r 1.183333 2 3 cbr 1000 ------- 1 1.0 3.1 18 18
+ 1.184 1 2 cbr 1000 ------- 1 1.0 3.1 23 23
- 1.184 1 2 cbr 1000 ------- 1 1.0 3.1 23 23
r 1.19 1 2 cbr 1000 ------- 1 1.0 3.1 22 22
+ 1.19 2 3 cbr 1000 ------- 1 1.0 3.1 22 22
- 1.19 2 3 cbr 1000 ------- 1 1.0 3.1 22 22
r 1.191333 2 3 cbr 1000 ------- 1 1.0 3.1 19 19
+ 1.192 1 2 cbr 1000 ------- 1 1.0 3.1 24 24
- 1.192 1 2 cbr 1000 ------- 1 1.0 3.1 24 24
r 1.198 1 2 cbr 1000 ------- 1 1.0 3.1 23 23
+ 1.198 2 3 cbr 1000 ------- 1 1.0 3.1 23 23
- 1.198 2 3 cbr 1000 ------- 1 1.0 3.1 23 23
r 1.199333 2 3 cbr 1000 ------- 1 1.0 3.1 20 20
+ 1.2 1 2 cbr 1000 ------- 1 1.0 3.1 25 25
- 1.2 1 2 cbr 1000 ------- 1 1.0 3.1 25 25
r 1.206 1 2 cbr 1000 ------- 1 1.0 3.1 24 24
+ 1.206 2 3 cbr 1000 ------- 1 1.0 3.1 24 24
- 1.206 2 3 cbr 1000 ------- 1 1.0 3.1 24 24
r 1.207333 2 3 cbr 1000 ------- 1 1.0 3.1 21 21
+ 1.208 1 2 cbr 1000 ------- 1 1.0 3.1 26 26
- 1.208 1 2 cbr 1000 ------- 1 1.0 3.1 26 26
r 1.214 1 2 cbr 1000 ------- 1 1.0 3.1 25 25
+ 1.214 2 3 cbr 1000 ------- 1 1.0 3.1 25 25
- 1.214 2 3 cbr 1000 ------- 1 1.0 3.1 25 25
r 1.215333 2 3 cbr 1000 ------- 1 1.0 3.1 22 22
+ 1.216 1 2 cbr 1000 ------- 1 1.0 3.1 27 27
- 1.216 1 2 cbr 1000 ------- 1 1.0 3.1 27 27
r 1.222 1 2 cbr 1000 ------- 1 1.0 3.1 26 26
+ 1.222 2 3 cbr 1000 ------- 1 1.0 3.1 26 26
- 1.222 2 3 cbr 1000 ------- 1 1.0 3.1 26 26
r 1.223333 2 3 cbr 1000 ------- 1 1.0 3.1 23 23
+ 1.224 1 2 cbr 1000 ------- 1 1.0 3.1 28 28
- 1.224 1 2 cbr 1000 ------- 1 1.0 3.1 28 28
r 1.23 1 2 cbr 1000 ------- 1 1.0 3.1 27 27
+ 1.23 2 3 cbr 1000 ------- 1 1.0 3.1 27 27
- 1.23 2 3 cbr 1000 ------- 1 1.0 3.1 27 27
r 1.231333 2 3 cbr 1000 ------- 1 1.0 3.1 24 24
+ 1.232 1 2 cbr 1000 ------- 1 1.0 3.1 29 29
- 1.232 1 2 cbr 1000 ------- 1 1.0 3.1 29 29
r 1.238 1 2 cbr 1000 ------- 1 1.0 3.1 28 28
+ 1.238 2 3 cbr 1000 ------- 1 1.0 3.1 28 28
- 1.238 2 3 cbr 1000 ------- 1 1.0 3.1 28 28
r 1.239333 2 3 cbr 1000 ------- 1 1.0 3.1 25 25
+ 1.24 1 2 cbr 1000 ------- 1 1.0 3.1 30 30
- 1.24 1 2 cbr 1000 ------- 1 1.0 3.1 30 30
r 1.246 1 2 cbr 1000 ------- 1 1.0 3.1 29 29
+ 1.246 2 3 cbr 1000 ------- 1 1.0 3.1 29 29
- 1.246 2 3 cbr 1000 ------- 1 1.0 3.1 29 29
r 1.247333 2 3 cbr 1000 ------- 1 1.0 3.1 26 26
+ 1.248 1 2 cbr 1000 ------- 1 1.0 3.1 31 31
- 1.248 1 2 cbr 1000 ------- 1 1.0 3.1 31 31
r 1.254 1 2 cbr 1000 ------- 1 1.0 3.1 30 30
+ 1.254 2 3 cbr 1000 ------- 1 1.0 3.1 30 30
- 1.254 2 3 cbr 1000 ------- 1 1.0 3.1 30 30
r 1.255333 2 3 cbr 1000 ------- 1 1.0 3.1 27 27
+ 1.256 1 2 cbr 1000 ------- 1 1.0 3.1 32 32
- 1.256 1 2 cbr 1000 ------- 1 1.0 3.1 32 32
r 1.262 1 2 cbr 1000 ------- 1 1.0 3.1 31 31
+ 1.262 2 3 cbr 1000 ------- 1 1.0 3.1 31 31
- 1.262 2 3 cbr 1000 ------- 1 1.0 3.1 31 31
r 1.263333 2 3 cbr 1000 ------- 1 1.0 3.1 28 28
+ 1.264 1 2 cbr 1000 ------- 1 1.0 3.1 33 33
- 1.264 1 2 cbr 1000 ------- 1 1.0 3.1 33 33
r 1.27 1 2 cbr 1000 ------- 1 1.0 3.1 32 32
+ 1.27 2 3 cbr 1000 ------- 1 1.0 3.1 32 32
- 1.27 2 3 cbr 1000 ------- 1 1.0 3.1 32 32
r 1.271333 2 3 cbr 1000 ------- 1 1.0 3.1 29 29
+ 1.272 1 2 cbr 1000 ------- 1 1.0 3.1 34 34
- 1.272 1 2 cbr 1000 ------- 1 1.0 3.1 34 34
r 1.278 1 2 cbr 1000 ------- 1 1.0 3.1 33 33
+ 1.278 2 3 cbr 1000 ------- 1 1.0 3.1 33 33
- 1.278 2 3 cbr 1000 ------- 1 1.0 3.1 33 33
r 1.279333 2 3 cbr 1000 ------- 1 1.0 3.1 30 30
+ 1.28 1 2 cbr 1000 ------- 1 1.0 3.1 35 35
- 1.28 1 2 cbr 1000 ------- 1 1.0 3.1 35 35
r 1.286 1 2 cbr 1000 ------- 1 1.0 3.1 34 34
+ 1.286 2 3 cbr 1000 ------- 1 1.0 3.1 34 34
- 1.286 2 3 cbr 1000 ------- 1 1.0 3.1 34 34
r 1.287333 2 3 cbr 1000 ------- 1 1.0 3.1 31 31
+ 1.288 1 2 cbr 1000 ------- 1 1.0 3.1 36 36
- 1.288 1 2 cbr 1000 ------- 1 1.0 3.1 36 36
r 1.294 1 2 cbr 1000 ------- 1 1.0 3.1 35 35
+ 1.294 2 3 cbr 1000 ------- 1 1.0 3.1 35 35
- 1.294 2 3 cbr 1000 ------- 1 1.0 3.1 35 35
r 1.295333 2 3 cbr 1000 ------- 1 1.0 3.1 32 32
+ 1.296 1 2 cbr 1000 ------- 1 1.0 3.1 37 37
- 1.296 1 2 cbr 1000 ------- 1 1.0 3.1 37 37
r 1.302 1 2 cbr 1000 ------- 1 1.0 3.1 36 36
+ 1.302 2 3 cbr 1000 ------- 1 1.0 3.1 36 36
- 1.302 2 3 cbr 1000 ------- 1 1.0 3.1 36 36
r 1.303333 2 3 cbr 1000 ------- 1 1.0 3.1 33 33
+ 1.304 1 2 cbr 1000 ------- 1 1.0 3.1 38 38
- 1.304 1 2 cbr 1000 ------- 1 1.0 3.1 38 38
r 1.31 1 2 cbr 1000 ------- 1 1.0 3.1 37 37
+ 1.31 2 3 cbr 1000 ------- 1 1.0 3.1 37 37
- 1.31 2 3 cbr 1000 ------- 1 1.0 3.1 37 37
r 1.311333 2 3 cbr 1000 ------- 1 1.0 3.1 34 34
+ 1.312 1 2 cbr 1000 ------- 1 1.0 3.1 39 39
- 1.312 1 2 cbr 1000 ------- 1 1.0 3.1 39 39
r 1.318 1 2 cbr 1000 ------- 1 1.0 3.1 38 38
+ 1.318 2 3 cbr 1000 ------- 1 1.0 3.1 38 38
- 1.318 2 3 cbr 1000 ------- 1 1.0 3.1 38 38
r 1.319333 2 3 cbr 1000 ------- 1 1.0 3.1 35 35
+ 1.32 1 2 cbr 1000 ------- 1 1.0 3.1 40 40
- 1.32 1 2 cbr 1000 ------- 1 1.0 3.1 40 40
r 1.326 1 2 cbr 1000 ------- 1 1.0 3.1 39 39
+ 1.326 2 3 cbr 1000 ------- 1 1.0 3.1 39 39
- 1.326 2 3 cbr 1000 ------- 1 1.0 3.1 39 39
r 1.327333 2 3 cbr 1000 ------- 1 1.0 3.1 36 36
+ 1.328 1 2 cbr 1000 ------- 1 1.0 3.1 41 41
- 1.328 1 2 cbr 1000 ------- 1 1.0 3.1 41 41
r 1.334 1 2 cbr 1000 ------- 1 1.0 3.1 40 40
+ 1.334 2 3 cbr 1000 ------- 1 1.0 3.1 40 40
- 1.334 2 3 cbr 1000 ------- 1 1.0 3.1 40 40
r 1.335333 2 3 cbr 1000 ------- 1 1.0 3.1 37 37
+ 1.336 1 2 cbr 1000 ------- 1 1.0 3.1 42 42
- 1.336 1 2 cbr 1000 ------- 1 1.0 3.1 42 42
r 1.342 1 2 cbr 1000 ------- 1 1.0 3.1 41 41
+ 1.342 2 3 cbr 1000 ------- 1 1.0 3.1 41 41
- 1.342 2 3 cbr 1000 ------- 1 1.0 3.1 41 41
r 1.343333 2 3 cbr 1000 ------- 1 1.0 3.1 38 38
+ 1.344 1 2 cbr 1000 ------- 1 1.0 3.1 43 43
- 1.344 1 2 cbr 1000 ------- 1 1.0 3.1 43 43
r 1.35 1 2 cbr 1000 ------- 1 1.0 3.1 42 42
+ 1.35 2 3 cbr 1000 ------- 1 1.0 3.1 42 42
- 1.35 2 3 cbr 1000 ------- 1 1.0 3.1 42 42
r 1.351333 2 3 cbr 1000 ------- 1 1.0 3.1 39 39
+ 1.352 1 2 cbr 1000 ------- 1 1.0 3.1 44 44
- 1.352 1 2 cbr 1000 ------- 1 1.0 3.1 44 44
r 1.358 1 2 cbr 1000 ------- 1 1.0 3.1 43 43
+ 1.358 2 3 cbr 1000 ------- 1 1.0 3.1 43 43
- 1.358 2 3 cbr 1000 ------- 1 1.0 3.1 43 43
r 1.359333 2 3 cbr 1000 ------- 1 1.0 3.1 40 40
+ 1.36 1 2 cbr 1000 ------- 1 1.0 3.1 45 45
- 1.36 1 2 cbr 1000 ------- 1 1.0 3.1 45 45
r 1.366 1 2 cbr 1000 ------- 1 1.0 3.1 44 44
+ 1.366 2 3 cbr 1000 ------- 1 1.0 3.1 44 44
- 1.366 2 3 cbr 1000 ------- 1 1.0 3.1 44 44
r 1.367333 2 3 cbr 1000 ------- 1 1.0 3.1 41 41
+ 1.368 1 2 cbr 1000 ------- 1 1.0 3.1 46 46
- 1.368 1 2 cbr 1000 ------- 1 1.0 3.1 46 46
r 1.374 1 2 cbr 1000 ------- 1 1.0 3.1 45 45
+ 1.374 2 3 cbr 1000 ------- 1 1.0 3.1 45 45
- 1.374 2 3 cbr 1000 ------- 1 1.0 3.1 45 45
r 1.375333 2 3 cbr 1000 ------- 1 1.0 3.1 42 42
+ 1.376 1 2 cbr 1000 ------- 1 1.0 3.1 47 47
- 1.376 1 2 cbr 1000 ------- 1 1.0 3.1 47 47
r 1.382 1 2 cbr 1000 ------- 1 1.0 3.1 46 46
+ 1.382 2 3 cbr 1000 ------- 1 1.0 3.1 46 46
- 1.382 2 3 cbr 1000 ------- 1 1.0 3.1 46 46
r 1.383333 2 3 cbr 1000 ------- 1 1.0 3.1 43 43
+ 1.384 1 2 cbr 1000 ------- 1 1.0 3.1 48 48
- 1.384 1 2 cbr 1000 ------- 1 1.0 3.1 48 48
r 1.39 1 2 cbr 1000 ------- 1 1.0 3.1 47 47
+ 1.39 2 3 cbr 1000 ------- 1 1.0 3.1 47 47
- 1.39 2 3 cbr 1000 ------- 1 1.0 3.1 47 47
r 1.391333 2 3 cbr 1000 ------- 1 1.0 3.1 44 44
+ 1.392 1 2 cbr 1000 ------- 1 1.0 3.1 49 49
- 1.392 1 2 cbr 1000 ------- 1 1.0 3.1 49 49
r 1.398 1 2 cbr 1000 ------- 1 1.0 3.1 48 48
+ 1.398 2 3 cbr 1000 ------- 1 1.0 3.1 48 48
- 1.398 2 3 cbr 1000 ------- 1 1.0 3.1 48 48
r 1.399333 2 3 cbr 1000 ------- 1 1.0 3.1 45 45
+ 1.4 1 2 cbr 1000 ------- 1 1.0 3.1 50 50
- 1.4 1 2 cbr 1000 ------- 1 1.0 3.1 50 50
r 1.406 1 2 cbr 1000 ------- 1 1.0 3.1 49 49
+ 1.406 2 3 cbr 1000 ------- 1 1.0 3.1 49 49
- 1.406 2 3 cbr 1000 ------- 1 1.0 3.1 49 49
r 1.407333 2 3 cbr 1000 ------- 1 1.0 3.1 46 46
+ 1.408 1 2 cbr 1000 ------- 1 1.0 3.1 51 51
- 1.408 1 2 cbr 1000 ------- 1 1.0 3.1 51 51
r 1.414 1 2 cbr 1000 ------- 1 1.0 3.1 50 50
+ 1.414 2 3 cbr 1000 ------- 1 1.0 3.1 50 50
- 1.414 2 3 cbr 1000 ------- 1 1.0 3.1 50 50
r 1.415333 2 3 cbr 1000 ------- 1 1.0 3.1 47 47
+ 1.416 1 2 cbr 1000 ------- 1 1.0 3.1 52 52
- 1.416 1 2 cbr 1000 ------- 1 1.0 3.1 52 52
r 1.422 1 2 cbr 1000 ------- 1 1.0 3.1 51 51
+ 1.422 2 3 cbr 1000 ------- 1 1.0 3.1 51 51
- 1.422 2 3 cbr 1000 ------- 1 1.0 3.1 51 51
r 1.423333 2 3 cbr 1000 ------- 1 1.0 3.1 48 48
+ 1.424 1 2 cbr 1000 ------- 1 1.0 3.1 53 53
- 1.424 1 2 cbr 1000 ------- 1 1.0 3.1 53 53
r 1.43 1 2 cbr 1000 ------- 1 1.0 3.1 52 52
+ 1.43 2 3 cbr 1000 ------- 1 1.0 3.1 52 52
- 1.43 2 3 cbr 1000 ------- 1 1.0 3.1 52 52
r 1.431333 2 3 cbr 1000 ------- 1 1.0 3.1 49 49
+ 1.432 1 2 cbr 1000 ------- 1 1.0 3.1 54 54
- 1.432 1 2 cbr 1000 ------- 1 1.0 3.1 54 54
r 1.438 1 2 cbr 1000 ------- 1 1.0 3.1 53 53
+ 1.438 2 3 cbr 1000 ------- 1 1.0 3.1 53 53
- 1.438 2 3 cbr 1000 ------- 1 1.0 3.1 53 53
r 1.439333 2 3 cbr 1000 ------- 1 1.0 3.1 50 50
+ 1.44 1 2 cbr 1000 ------- 1 1.0 3.1 55 55
- 1.44 1 2 cbr 1000 ------- 1 1.0 3.1 55 55
r 1.446 1 2 cbr 1000 ------- 1 1.0 3.1 54 54
+ 1.446 2 3 cbr 1000 ------- 1 1.0 3.1 54 54
- 1.446 2 3 cbr 1000 ------- 1 1.0 3.1 54 54
r 1.447333 2 3 cbr 1000 ------- 1 1.0 3.1 51 51
+ 1.448 1 2 cbr 1000 ------- 1 1.0 3.1 56 56
- 1.448 1 2 cbr 1000 ------- 1 1.0 3.1 56 56
r 1.454 1 2 cbr 1000 ------- 1 1.0 3.1 55 55
+ 1.454 2 3 cbr 1000 ------- 1 1.0 3.1 55 55
- 1.454 2 3 cbr 1000 ------- 1 1.0 3.1 55 55
r 1.455333 2 3 cbr 1000 ------- 1 1.0 3.1 52 52
+ 1.456 1 2 cbr 1000 ------- 1 1.0 3.1 57 57
- 1.456 1 2 cbr 1000 ------- 1 1.0 3.1 57 57
r 1.462 1 2 cbr 1000 ------- 1 1.0 3.1 56 56
+ 1.462 2 3 cbr 1000 ------- 1 1.0 3.1 56 56
- 1.462 2 3 cbr 1000 ------- 1 1.0 3.1 56 56
r 1.463333 2 3 cbr 1000 ------- 1 1.0 3.1 53 53
+ 1.464 1 2 cbr 1000 ------- 1 1.0 3.1 58 58
- 1.464 1 2 cbr 1000 ------- 1 1.0 3.1 58 58
r 1.47 1 2 cbr 1000 ------- 1 1.0 3.1 57 57
+ 1.47 2 3 cbr 1000 ------- 1 1.0 3.1 57 57
- 1.47 2 3 cbr 1000 ------- 1 1.0 3.1 57 57
r 1.471333 2 3 cbr 1000 ------- 1 1.0 3.1 54 54
+ 1.472 1 2 cbr 1000 ------- 1 1.0 3.1 59 59
- 1.472 1 2 cbr 1000 ------- 1 1.0 3.1 59 59
r 1.478 1 2 cbr 1000 ------- 1 1.0 3.1 58 58
+ 1.478 2 3 cbr 1000 ------- 1 1.0 3.1 58 58
- 1.478 2 3 cbr 1000 ------- 1 1.0 3.1 58 58
r 1.479333 2 3 cbr 1000 ------- 1 1.0 3.1 55 55
+ 1.48 1 2 cbr 1000 ------- 1 1.0 3.1 60 60
- 1.48 1 2 cbr 1000 ------- 1 1.0 3.1 60 60
r 1.486 1 2 cbr 1000 ------- 1 1.0 3.1 59 59
+ 1.486 2 3 cbr 1000 ------- 1 1.0 3.1 59 59
- 1.486 2 3 cbr 1000 ------- 1 1.0 3.1 59 59
r 1.487333 2 3 cbr 1000 ------- 1 1.0 3.1 56 56
+ 1.488 1 2 cbr 1000 ------- 1 1.0 3.1 61 61
- 1.488 1 2 cbr 1000 ------- 1 1.0 3.1 61 61
r 1.494 1 2 cbr 1000 ------- 1 1.0 3.1 60 60
+ 1.494 2 3 cbr 1000 ------- 1 1.0 3.1 60 60
- 1.494 2 3 cbr 1000 ------- 1 1.0 3.1 60 60
r 1.495333 2 3 cbr 1000 ------- 1 1.0 3.1 57 57
+ 1.496 1 2 cbr 1000 ------- 1 1.0 3.1 62 62
- 1.496 1 2 cbr 1000 ------- 1 1.0 3.1 62 62
r 1.502 1 2 cbr 1000 ------- 1 1.0 3.1 61 61
+ 1.502 2 3 cbr 1000 ------- 1 1.0 3.1 61 61
- 1.502 2 3 cbr 1000 ------- 1 1.0 3.1 61 61
r 1.503333 2 3 cbr 1000 ------- 1 1.0 3.1 58 58
+ 1.504 1 2 cbr 1000 ------- 1 1.0 3.1 63 63
- 1.504 1 2 cbr 1000 ------- 1 1.0 3.1 63 63
r 1.51 1 2 cbr 1000 ------- 1 1.0 3.1 62 62
+ 1.51 2 3 cbr 1000 ------- 1 1.0 3.1 62 62
- 1.51 2 3 cbr 1000 ------- 1 1.0 3.1 62 62
r 1.511333 2 3 cbr 1000 ------- 1 1.0 3.1 59 59
+ 1.512 1 2 cbr 1000 ------- 1 1.0 3.1 64 64
- 1.512 1 2 cbr 1000 ------- 1 1.0 3.1 64 64
r 1.518 1 2 cbr 1000 ------- 1 1.0 3.1 63 63
+ 1.518 2 3 cbr 1000 ------- 1 1.0 3.1 63 63
- 1.518 2 3 cbr 1000 ------- 1 1.0 3.1 63 63
r 1.519333 2 3 cbr 1000 ------- 1 1.0 3.1 60 60
+ 1.52 1 2 cbr 1000 ------- 1 1.0 3.1 65 65
- 1.52 1 2 cbr 1000 ------- 1 1.0 3.1 65 65
r 1.526 1 2 cbr 1000 ------- 1 1.0 3.1 64 64
+ 1.526 2 3 cbr 1000 ------- 1 1.0 3.1 64 64
- 1.526 2 3 cbr 1000 ------- 1 1.0 3.1 64 64
r 1.527333 2 3 cbr 1000 ------- 1 1.0 3.1 61 61
+ 1.528 1 2 cbr 1000 ------- 1 1.0 3.1 66 66
- 1.528 1 2 cbr 1000 ------- 1 1.0 3.1 66 66
r 1.534 1 2 cbr 1000 ------- 1 1.0 3.1 65 65
+ 1.534 2 3 cbr 1000 ------- 1 1.0 3.1 65 65
- 1.534 2 3 cbr 1000 ------- 1 1.0 3.1 65 65
r 1.535333 2 3 cbr 1000 ------- 1 1.0 3.1 62 62
+ 1.536 1 2 cbr 1000 ------- 1 1.0 3.1 67 67
- 1.536 1 2 cbr 1000 ------- 1 1.0 3.1 67 67
r 1.542 1 2 cbr 1000 ------- 1 1.0 3.1 66 66
+ 1.542 2 3 cbr 1000 ------- 1 1.0 3.1 66 66
- 1.542 2 3 cbr 1000 ------- 1 1.0 3.1 66 66
r 1.543333 2 3 cbr 1000 ------- 1 1.0 3.1 63 63
+ 1.544 1 2 cbr 1000 ------- 1 1.0 3.1 68 68
- 1.544 1 2 cbr 1000 ------- 1 1.0 3.1 68 68
r 1.55 1 2 cbr 1000 ------- 1 1.0 3.1 67 67
+ 1.55 2 3 cbr 1000 ------- 1 1.0 3.1 67 67
- 1.55 2 3 cbr 1000 ------- 1 1.0 3.1 67 67
r 1.551333 2 3 cbr 1000 ------- 1 1.0 3.1 64 64
+ 1.552 1 2 cbr 1000 ------- 1 1.0 3.1 69 69
- 1.552 1 2 cbr 1000 ------- 1 1.0 3.1 69 69
r 1.558 1 2 cbr 1000 ------- 1 1.0 3.1 68 68
+ 1.558 2 3 cbr 1000 ------- 1 1.0 3.1 68 68
- 1.558 2 3 cbr 1000 ------- 1 1.0 3.1 68 68
r 1.559333 2 3 cbr 1000 ------- 1 1.0 3.1 65 65
+ 1.56 1 2 cbr 1000 ------- 1 1.0 3.1 70 70
- 1.56 1 2 cbr 1000 ------- 1 1.0 3.1 70 70
r 1.566 1 2 cbr 1000 ------- 1 1.0 3.1 69 69
+ 1.566 2 3 cbr 1000 ------- 1 1.0 3.1 69 69
- 1.566 2 3 cbr 1000 ------- 1 1.0 3.1 69 69
r 1.567333 2 3 cbr 1000 ------- 1 1.0 3.1 66 66
+ 1.568 1 2 cbr 1000 ------- 1 1.0 3.1 71 71
- 1.568 1 2 cbr 1000 ------- 1 1.0 3.1 71 71
r 1.574 1 2 cbr 1000 ------- 1 1.0 3.1 70 70
+ 1.574 2 3 cbr 1000 ------- 1 1.0 3.1 70 70
- 1.574 2 3 cbr 1000 ------- 1 1.0 3.1 70 70
r 1.575333 2 3 cbr 1000 ------- 1 1.0 3.1 67 67
+ 1.576 1 2 cbr 1000 ------- 1 1.0 3.1 72 72
- 1.576 1 2 cbr 1000 ------- 1 1.0 3.1 72 72
r 1.582 1 2 cbr 1000 ------- 1 1.0 3.1 71 71
+ 1.582 2 3 cbr 1000 ------- 1 1.0 3.1 71 71
- 1.582 2 3 cbr 1000 ------- 1 1.0 3.1 71 71
r 1.583333 2 3 cbr 1000 ------- 1 1.0 3.1 68 68
+ 1.584 1 2 cbr 1000 ------- 1 1.0 3.1 73 73
- 1.584 1 2 cbr 1000 ------- 1 1.0 3.1 73 73
r 1.59 1 2 cbr 1000 ------- 1 1.0 3.1 72 72
+ 1.59 2 3 cbr 1000 ------- 1 1.0 3.1 72 72
- 1.59 2 3 cbr 1000 ------- 1 1.0 3.1 72 72
r 1.591333 2 3 cbr 1000 ------- 1 1.0 3.1 69 69
+ 1.592 1 2 cbr 1000 ------- 1 1.0 3.1 74 74
- 1.592 1 2 cbr 1000 ------- 1 1.0 3.1 74 74
r 1.598 1 2 cbr 1000 ------- 1 1.0 3.1 73 73
+ 1.598 2 3 cbr 1000 ------- 1 1.0 3.1 73 73
- 1.598 2 3 cbr 1000 ------- 1 1.0 3.1 73 73
r 1.599333 2 3 cbr 1000 ------- 1 1.0 3.1 70 70
+ 1.6 1 2 cbr 1000 ------- 1 1.0 3.1 75 75
- 1.6 1 2 cbr 1000 ------- 1 1.0 3.1 75 75
r 1.606 1 2 cbr 1000 ------- 1 1.0 3.1 74 74
+ 1.606 2 3 cbr 1000 ------- 1 1.0 3.1 74 74
- 1.606 2 3 cbr 1000 ------- 1 1.0 3.1 74 74
r 1.607333 2 3 cbr 1000 ------- 1 1.0 3.1 71 71
+ 1.608 1 2 cbr 1000 ------- 1 1.0 3.1 76 76
- 1.608 1 2 cbr 1000 ------- 1 1.0 3.1 76 76
r 1.614 1 2 cbr 1000 ------- 1 1.0 3.1 75 75
+ 1.614 2 3 cbr 1000 ------- 1 1.0 3.1 75 75
- 1.614 2 3 cbr 1000 ------- 1 1.0 3.1 75 75
r 1.615333 2 3 cbr 1000 ------- 1 1.0 3.1 72 72
+ 1.616 1 2 cbr 1000 ------- 1 1.0 3.1 77 77
- 1.616 1 2 cbr 1000 ------- 1 1.0 3.1 77 77
r 1.622 1 2 cbr 1000 ------- 1 1.0 3.1 76 76
+ 1.622 2 3 cbr 1000 ------- 1 1.0 3.1 76 76
- 1.622 2 3 cbr 1000 ------- 1 1.0 3.1 76 76
r 1.623333 2 3 cbr 1000 ------- 1 1.0 3.1 73 73
+ 1.624 1 2 cbr 1000 ------- 1 1.0 3.1 78 78
- 1.624 1 2 cbr 1000 ------- 1 1.0 3.1 78 78
r 1.63 1 2 cbr 1000 ------- 1 1.0 3.1 77 77
+ 1.63 2 3 cbr 1000 ------- 1 1.0 3.1 77 77
- 1.63 2 3 cbr 1000 ------- 1 1.0 3.1 77 77
r 1.631333 2 3 cbr 1000 ------- 1 1.0 3.1 74 74
+ 1.632 1 2 cbr 1000 ------- 1 1.0 3.1 79 79
- 1.632 1 2 cbr 1000 ------- 1 1.0 3.1 79 79
r 1.638 1 2 cbr 1000 ------- 1 1.0 3.1 78 78
+ 1.638 2 3 cbr 1000 ------- 1 1.0 3.1 78 78
- 1.638 2 3 cbr 1000 ------- 1 1.0 3.1 78 78
r 1.639333 2 3 cbr 1000 ------- 1 1.0 3.1 75 75
+ 1.64 1 2 cbr 1000 ------- 1 1.0 3.1 80 80
- 1.64 1 2 cbr 1000 ------- 1 1.0 3.1 80 80
r 1.646 1 2 cbr 1000 ------- 1 1.0 3.1 79 79
+ 1.646 2 3 cbr 1000 ------- 1 1.0 3.1 79 79
- 1.646 2 3 cbr 1000 ------- 1 1.0 3.1 79 79
r 1.647333 2 3 cbr 1000 ------- 1 1.0 3.1 76 76
+ 1.648 1 2 cbr 1000 ------- 1 1.0 3.1 81 81
- 1.648 1 2 cbr 1000 ------- 1 1.0 3.1 81 81
r 1.654 1 2 cbr 1000 ------- 1 1.0 3.1 80 80
+ 1.654 2 3 cbr 1000 ------- 1 1.0 3.1 80 80
- 1.654 2 3 cbr 1000 ------- 1 1.0 3.1 80 80
r 1.655333 2 3 cbr 1000 ------- 1 1.0 3.1 77 77
+ 1.656 1 2 cbr 1000 ------- 1 1.0 3.1 82 82
- 1.656 1 2 cbr 1000 ------- 1 1.0 3.1 82 82
r 1.662 1 2 cbr 1000 ------- 1 1.0 3.1 81 81
+ 1.662 2 3 cbr 1000 ------- 1 1.0 3.1 81 81
- 1.662 2 3 cbr 1000 ------- 1 1.0 3.1 81 81
r 1.663333 2 3 cbr 1000 ------- 1 1.0 3.1 78 78
+ 1.664 1 2 cbr 1000 ------- 1 1.0 3.1 83 83
- 1.664 1 2 cbr 1000 ------- 1 1.0 3.1 83 83
r 1.67 1 2 cbr 1000 ------- 1 1.0 3.1 82 82
+ 1.67 2 3 cbr 1000 ------- 1 1.0 3.1 82 82
- 1.67 2 3 cbr 1000 ------- 1 1.0 3.1 82 82
r 1.671333 2 3 cbr 1000 ------- 1 1.0 3.1 79 79
+ 1.672 1 2 cbr 1000 ------- 1 1.0 3.1 84 84
- 1.672 1 2 cbr 1000 ------- 1 1.0 3.1 84 84
r 1.678 1 2 cbr 1000 ------- 1 1.0 3.1 83 83
+ 1.678 2 3 cbr 1000 ------- 1 1.0 3.1 83 83
- 1.678 2 3 cbr 1000 ------- 1 1.0 3.1 83 83
r 1.679333 2 3 cbr 1000 ------- 1 1.0 3.1 80 80
+ 1.68 1 2 cbr 1000 ------- 1 1.0 3.1 85 85
- 1.68 1 2 cbr 1000 ------- 1 1.0 3.1 85 85
r 1.686 1 2 cbr 1000 ------- 1 1.0 3.1 84 84
+ 1.686 2 3 cbr 1000 ------- 1 1.0 3.1 84 84
- 1.686 2 3 cbr 1000 ------- 1 1.0 3.1 84 84
r 1.687333 2 3 cbr 1000 ------- 1 1.0 3.1 81 81
+ 1.688 1 2 cbr 1000 ------- 1 1.0 3.1 86 86
- 1.688 1 2 cbr 1000 ------- 1 1.0 3.1 86 86
r 1.694 1 2 cbr 1000 ------- 1 1.0 3.1 85 85
+ 1.694 2 3 cbr 1000 ------- 1 1.0 3.1 85 85
- 1.694 2 3 cbr 1000 ------- 1 1.0 3.1 85 85
r 1.695333 2 3 cbr 1000 ------- 1 1.0 3.1 82 82
+ 1.696 1 2 cbr 1000 ------- 1 1.0 3.1 87 87
- 1.696 1 2 cbr 1000 ------- 1 1.0 3.1 87 87
r 1.702 1 2 cbr 1000 ------- 1 1.0 3.1 86 86
+ 1.702 2 3 cbr 1000 ------- 1 1.0 3.1 86 86
- 1.702 2 3 cbr 1000 ------- 1 1.0 3.1 86 86
r 1.703333 2 3 cbr 1000 ------- 1 1.0 3.1 83 83
+ 1.704 1 2 cbr 1000 ------- 1 1.0 3.1 88 88
- 1.704 1 2 cbr 1000 ------- 1 1.0 3.1 88 88
r 1.71 1 2 cbr 1000 ------- 1 1.0 3.1 87 87
+ 1.71 2 3 cbr 1000 ------- 1 1.0 3.1 87 87
- 1.71 2 3 cbr 1000 ------- 1 1.0 3.1 87 87
r 1.711333 2 3 cbr 1000 ------- 1 1.0 3.1 84 84
+ 1.712 1 2 cbr 1000 ------- 1 1.0 3.1 89 89
- 1.712 1 2 cbr 1000 ------- 1 1.0 3.1 89 89
r 1.718 1 2 cbr 1000 ------- 1 1.0 3.1 88 88
+ 1.718 2 3 cbr 1000 ------- 1 1.0 3.1 88 88
- 1.718 2 3 cbr 1000 ------- 1 1.0 3.1 88 88
r 1.719333 2 3 cbr 1000 ------- 1 1.0 3.1 85 85
+ 1.72 1 2 cbr 1000 ------- 1 1.0 3.1 90 90
- 1.72 1 2 cbr 1000 ------- 1 1.0 3.1 90 90
r 1.726 1 2 cbr 1000 ------- 1 1.0 3.1 89 89
+ 1.726 2 3 cbr 1000 ------- 1 1.0 3.1 89 89
- 1.726 2 3 cbr 1000 ------- 1 1.0 3.1 89 89
r 1.727333 2 3 cbr 1000 ------- 1 1.0 3.1 86 86
+ 1.728 1 2 cbr 1000 ------- 1 1.0 3.1 91 91
- 1.728 1 2 cbr 1000 ------- 1 1.0 3.1 91 91
r 1.734 1 2 cbr 1000 ------- 1 1.0 3.1 90 90
+ 1.734 2 3 cbr 1000 ------- 1 1.0 3.1 90 90
- 1.734 2 3 cbr 1000 ------- 1 1.0 3.1 90 90
r 1.735333 2 3 cbr 1000 ------- 1 1.0 3.1 87 87
+ 1.736 1 2 cbr 1000 ------- 1 1.0 3.1 92 92
- 1.736 1 2 cbr 1000 ------- 1 1.0 3.1 92 92
r 1.742 1 2 cbr 1000 ------- 1 1.0 3.1 91 91
+ 1.742 2 3 cbr 1000 ------- 1 1.0 3.1 91 91
- 1.742 2 3 cbr 1000 ------- 1 1.0 3.1 91 91
r 1.743333 2 3 cbr 1000 ------- 1 1.0 3.1 88 88
+ 1.744 1 2 cbr 1000 ------- 1 1.0 3.1 93 93
- 1.744 1 2 cbr 1000 ------- 1 1.0 3.1 93 93
r 1.75 1 2 cbr 1000 ------- 1 1.0 3.1 92 92
+ 1.75 2 3 cbr 1000 ------- 1 1.0 3.1 92 92
- 1.75 2 3 cbr 1000 ------- 1 1.0 3.1 92 92
r 1.751333 2 3 cbr 1000 ------- 1 1.0 3.1 89 89
+ 1.752 1 2 cbr 1000 ------- 1 1.0 3.1 94 94
- 1.752 1 2 cbr 1000 ------- 1 1.0 3.1 94 94
r 1.758 1 2 cbr 1000 ------- 1 1.0 3.1 93 93
+ 1.758 2 3 cbr 1000 ------- 1 1.0 3.1 93 93
- 1.758 2 3 cbr 1000 ------- 1 1.0 3.1 93 93
r 1.759333 2 3 cbr 1000 ------- 1 1.0 3.1 90 90
+ 1.76 1 2 cbr 1000 ------- 1 1.0 3.1 95 95
- 1.76 1 2 cbr 1000 ------- 1 1.0 3.1 95 95
r 1.766 1 2 cbr 1000 ------- 1 1.0 3.1 94 94
+ 1.766 2 3 cbr 1000 ------- 1 1.0 3.1 94 94
- 1.766 2 3 cbr 1000 ------- 1 1.0 3.1 94 94
r 1.767333 2 3 cbr 1000 ------- 1 1.0 3.1 91 91
+ 1.768 1 2 cbr 1000 ------- 1 1.0 3.1 96 96
- 1.768 1 2 cbr 1000 ------- 1 1.0 3.1 96 96
r 1.774 1 2 cbr 1000 ------- 1 1.0 3.1 95 95
+ 1.774 2 3 cbr 1000 ------- 1 1.0 3.1 95 95
- 1.774 2 3 cbr 1000 ------- 1 1.0 3.1 95 95
r 1.775333 2 3 cbr 1000 ------- 1 1.0 3.1 92 92
+ 1.776 1 2 cbr 1000 ------- 1 1.0 3.1 97 97
- 1.776 1 2 cbr 1000 ------- 1 1.0 3.1 97 97
r 1.782 1 2 cbr 1000 ------- 1 1.0 3.1 96 96
+ 1.782 2 3 cbr 1000 ------- 1 1.0 3.1 96 96
- 1.782 2 3 cbr 1000 ------- 1 1.0 3.1 96 96
r 1.783333 2 3 cbr 1000 ------- 1 1.0 3.1 93 93
+ 1.784 1 2 cbr 1000 ------- 1 1.0 3.1 98 98
- 1.784 1 2 cbr 1000 ------- 1 1.0 3.1 98 98
r 1.79 1 2 cbr 1000 ------- 1 1.0 3.1 97 97
+ 1.79 2 3 cbr 1000 ------- 1 1.0 3.1 97 97
- 1.79 2 3 cbr 1000 ------- 1 1.0 3.1 97 97
r 1.791333 2 3 cbr 1000 ------- 1 1.0 3.1 94 94
+ 1.792 1 2 cbr 1000 ------- 1 1.0 3.1 99 99
- 1.792 1 2 cbr 1000 ------- 1 1.0 3.1 99 99
r 1.798 1 2 cbr 1000 ------- 1 1.0 3.1 98 98
+ 1.798 2 3 cbr 1000 ------- 1 1.0 3.1 98 98
- 1.798 2 3 cbr 1000 ------- 1 1.0 3.1 98 98
r 1.799333 2 3 cbr 1000 ------- 1 1.0 3.1 95 95
+ 1.8 1 2 cbr 1000 ------- 1 1.0 3.1 100 100
- 1.8 1 2 cbr 1000 ------- 1 1.0 3.1 100 100
r 1.806 1 2 cbr 1000 ------- 1 1.0 3.1 99 99
+ 1.806 2 3 cbr 1000 ------- 1 1.0 3.1 99 99
- 1.806 2 3 cbr 1000 ------- 1 1.0 3.1 99 99
r 1.807333 2 3 cbr 1000 ------- 1 1.0 3.1 96 96
+ 1.808 1 2 cbr 1000 ------- 1 1.0 3.1 101 101
- 1.808 1 2 cbr 1000 ------- 1 1.0 3.1 101 101
r 1.814 1 2 cbr 1000 ------- 1 1.0 3.1 100 100
+ 1.814 2 3 cbr 1000 ------- 1 1.0 3.1 100 100
- 1.814 2 3 cbr 1000 ------- 1 1.0 3.1 100 100
r 1.815333 2 3 cbr 1000 ------- 1 1.0 3.1 97 97
+ 1.816 1 2 cbr 1000 ------- 1 1.0 3.1 102 102
- 1.816 1 2 cbr 1000 ------- 1 1.0 3.1 102 102
r 1.822 1 2 cbr 1000 ------- 1 1.0 3.1 101 101
+ 1.822 2 3 cbr 1000 ------- 1 1.0 3.1 101 101
- 1.822 2 3 cbr 1000 ------- 1 1.0 3.1 101 101
r 1.823333 2 3 cbr 1000 ------- 1 1.0 3.1 98 98
+ 1.824 1 2 cbr 1000 ------- 1 1.0 3.1 103 103
- 1.824 1 2 cbr 1000 ------- 1 1.0 3.1 103 103
r 1.83 1 2 cbr 1000 ------- 1 1.0 3.1 102 102
+ 1.83 2 3 cbr 1000 ------- 1 1.0 3.1 102 102
- 1.83 2 3 cbr 1000 ------- 1 1.0 3.1 102 102
r 1.831333 2 3 cbr 1000 ------- 1 1.0 3.1 99 99
+ 1.832 1 2 cbr 1000 ------- 1 1.0 3.1 104 104
- 1.832 1 2 cbr 1000 ------- 1 1.0 3.1 104 104
r 1.838 1 2 cbr 1000 ------- 1 1.0 3.1 103 103
+ 1.838 2 3 cbr 1000 ------- 1 1.0 3.1 103 103
- 1.838 2 3 cbr 1000 ------- 1 1.0 3.1 103 103
r 1.839333 2 3 cbr 1000 ------- 1 1.0 3.1 100 100
+ 1.84 1 2 cbr 1000 ------- 1 1.0 3.1 105 105
- 1.84 1 2 cbr 1000 ------- 1 1.0 3.1 105 105
r 1.846 1 2 cbr 1000 ------- 1 1.0 3.1 104 104
+ 1.846 2 3 cbr 1000 ------- 1 1.0 3.1 104 104
- 1.846 2 3 cbr 1000 ------- 1 1.0 3.1 104 104
r 1.847333 2 3 cbr 1000 ------- 1 1.0 3.1 101 101
+ 1.848 1 2 cbr 1000 ------- 1 1.0 3.1 106 106
- 1.848 1 2 cbr 1000 ------- 1 1.0 3.1 106 106
r 1.854 1 2 cbr 1000 ------- 1 1.0 3.1 105 105
+ 1.854 2 3 cbr 1000 ------- 1 1.0 3.1 105 105
- 1.854 2 3 cbr 1000 ------- 1 1.0 3.1 105 105
r 1.855333 2 3 cbr 1000 ------- 1 1.0 3.1 102 102
+ 1.856 1 2 cbr 1000 ------- 1 1.0 3.1 107 107
- 1.856 1 2 cbr 1000 ------- 1 1.0 3.1 107 107
r 1.862 1 2 cbr 1000 ------- 1 1.0 3.1 106 106
+ 1.862 2 3 cbr 1000 ------- 1 1.0 3.1 106 106
- 1.862 2 3 cbr 1000 ------- 1 1.0 3.1 106 106
r 1.863333 2 3 cbr 1000 ------- 1 1.0 3.1 103 103
+ 1.864 1 2 cbr 1000 ------- 1 1.0 3.1 108 108
- 1.864 1 2 cbr 1000 ------- 1 1.0 3.1 108 108
r 1.87 1 2 cbr 1000 ------- 1 1.0 3.1 107 107
+ 1.87 2 3 cbr 1000 ------- 1 1.0 3.1 107 107
- 1.87 2 3 cbr 1000 ------- 1 1.0 3.1 107 107
r 1.871333 2 3 cbr 1000 ------- 1 1.0 3.1 104 104
+ 1.872 1 2 cbr 1000 ------- 1 1.0 3.1 109 109
- 1.872 1 2 cbr 1000 ------- 1 1.0 3.1 109 109
r 1.878 1 2 cbr 1000 ------- 1 1.0 3.1 108 108
+ 1.878 2 3 cbr 1000 ------- 1 1.0 3.1 108 108
- 1.878 2 3 cbr 1000 ------- 1 1.0 3.1 108 108
r 1.879333 2 3 cbr 1000 ------- 1 1.0 3.1 105 105
+ 1.88 1 2 cbr 1000 ------- 1 1.0 3.1 110 110
- 1.88 1 2 cbr 1000 ------- 1 1.0 3.1 110 110
r 1.886 1 2 cbr 1000 ------- 1 1.0 3.1 109 109
+ 1.886 2 3 cbr 1000 ------- 1 1.0 3.1 109 109
- 1.886 2 3 cbr 1000 ------- 1 1.0 3.1 109 109
r 1.887333 2 3 cbr 1000 ------- 1 1.0 3.1 106 106
+ 1.888 1 2 cbr 1000 ------- 1 1.0 3.1 111 111
- 1.888 1 2 cbr 1000 ------- 1 1.0 3.1 111 111
r 1.894 1 2 cbr 1000 ------- 1 1.0 3.1 110 110