V -t * -v 1.0a5 -a 0
A -t * -n 1 -p 0 -o 0x7fffffff -c 30 -a 1
A -t * -h 1 -m 1073741823 -s 0
n -t * -a 4 -s 4 -S UP -v circle -c black -i black
n -t * -a 0 -s 0 -S UP -v circle -c black -i black
n -t * -a 1 -s 1 -S UP -v circle -c black -i black
n -t * -a 2 -s 2 -S UP -v circle -c black -i black
n -t * -a 3 -s 3 -S UP -v circle -c black -i black
l -t * -s 0 -d 2 -S UP -r 1000000 -D 0.01 -c black
l -t * -s 1 -d 2 -S UP -r 1000000 -D 0.01 -c black
l -t * -s 2 -d 3 -S UP -r 1000000 -D 0.01 -c black
l -t * -s 3 -d 4 -S UP -r 1000000 -D 0.050000000000000003 -c black
+ -t 0 -s 0 -d 2 -p tcp -e 40 -c 0 -i 0 -a 0 -x {0.0 3.0 0 ------- null}
- -t 0 -s 0 -d 2 -p tcp -e 40 -c 0 -i 0 -a 0 -x {0.0 3.0 0 ------- null}
h -t 0 -s 0 -d 2 -p tcp -e 40 -c 0 -i 0 -a 0 -x {0.0 3.0 -1 ------- null}
+ -t 0 -s 1 -d 2 -p tcp -e 40 -c 0 -i 1 -a 0 -x {1.0 4.0 0 ------- null}
- -t 0 -s 1 -d 2 -p tcp -e 40 -c 0 -i 1 -a 0 -x {1.0 4.0 0 ------- null}
h -t 0 -s 1 -d 2 -p tcp -e 40 -c 0 -i 1 -a 0 -x {1.0 4.0 -1 ------- null}
r -t 0.01032 -s 0 -d 2 -p tcp -e 40 -c 0 -i 0 -a 0 -x {0.0 3.0 0 ------- null}
+ -t 0.01032 -s 2 -d 3 -p tcp -e 40 -c 0 -i 0 -a 0 -x {0.0 3.0 0 ------- null}
- -t 0.01032 -s 2 -d 3 -p tcp -e 40 -c 0 -i 0 -a 0 -x {0.0 3.0 0 ------- null}
h -t 0.01032 -s 2 -d 3 -p tcp -e 40 -c 0 -i 0 -a 0 -x {0.0 3.0 -1 ------- null}
r -t 0.01032 -s 1 -d 2 -p tcp -e 40 -c 0 -i 1 -a 0 -x {1.0 4.0 0 ------- null}
+ -t 0.01032 -s 2 -d 3 -p tcp -e 40 -c 0 -i 1 -a 0 -x {1.0 4.0 0 ------- null}
- -t 0.01064 -s 2 -d 3 -p tcp -e 40 -c 0 -i 1 -a 0 -x {1.0 4.0 0 ------- null}
h -t 0.01064 -s 2 -d 3 -p tcp -e 40 -c 0 -i 1 -a 0 -x {1.0 4.0 -1 ------- null}
r -t 0.02064 -s 2 -d 3 -p tcp -e 40 -c 0 -i 0 -a 0 -x {0.0 3.0 0 ------- null}
+ -t 0.02064 -s 3 -d 2 -p ack -e 40 -c 0 -i 2 -a 0 -x {3.0 0.0 0 ------- null}
- -t 0.02064 -s 3 -d 2 -p ack -e 40 -c 0 -i 2 -a 0 -x {3.0 0.0 0 ------- null}
h -t 0.02064 -s 3 -d 2 -p ack -e 40 -c 0 -i 2 -a 0 -x {3.0 0.0 -1 ------- null}
r -t 0.02096 -s 2 -d 3 -p tcp -e 40 -c 0 -i 1 -a 0 -x {1.0 4.0 0 ------- null}
+ -t 0.02096 -s 3 -d 4 -p tcp -e 40 -c 0 -i 1 -a 0 -x {1.0 4.0 0 ------- null}
- -t 0.02096 -s 3 -d 4 -p tcp -e 40 -c 0 -i 1 -a 0 -x {1.0 4.0 0 ------- null}
h -t 0.02096 -s 3 -d 4 -p tcp -e 40 -c 0 -i 1 -a 0 -x {1.0 4.0 -1 ------- null}
r -t 0.03096 -s 3 -d 2 -p ack -e 40 -c 0 -i 2 -a 0 -x {3.0 0.0 0 ------- null}
+ -t 0.03096 -s 2 -d 0 -p ack -e 40 -c 0 -i 2 -a 0 -x {3.0 0.0 0 ------- null}
- -t 0.03096 -s 2 -d 0 -p ack -e 40 -c 0 -i 2 -a 0 -x {3.0 0.0 0 ------- null}
h -t 0.03096 -s 2 -d 0 -p ack -e 40 -c 0 -i 2 -a 0 -x {3.0 0.0 -1 ------- null}
r -t 0.04128 -s 2 -d 0 -p ack -e 40 -c 0 -i 2 -a 0 -x {3.0 0.0 0 ------- null}
+ -t 0.04128 -s 0 -d 2 -p tcp -e 1040 -c 0 -i 3 -a 0 -x {0.0 3.0 1 ------- null}
- -t 0.04128 -s 0 -d 2 -p tcp -e 1040 -c 0 -i 3 -a 0 -x {0.0 3.0 1 ------- null}
h -t 0.04128 -s 0 -d 2 -p tcp -e 1040 -c 0 -i 3 -a 0 -x {0.0 3.0 -1 ------- null}
+ -t 0.04128 -s 0 -d 2 -p tcp -e 1040 -c 0 -i 4 -a 0 -x {0.0 3.0 2 ------- null}
- -t 0.0496 -s 0 -d 2 -p tcp -e 1040 -c 0 -i 4 -a 0 -x {0.0 3.0 2 ------- null}
h -t 0.0496 -s 0 -d 2 -p tcp -e 1040 -c 0 -i 4 -a 0 -x {0.0 3.0 -1 ------- null}
r -t 0.0596 -s 0 -d 2 -p tcp -e 1040 -c 0 -i 3 -a 0 -x {0.0 3.0 1 ------- null}
+ -t 0.0596 -s 2 -d 3 -p tcp -e 1040 -c 0 -i 3 -a 0 -x {0.0 3.0 1 ------- null}
- -t 0.0596 -s 2 -d 3 -p tcp -e 1040 -c 0 -i 3 -a 0 -x {0.0 3.0 1 ------- null}
h -t 0.0596 -s 2 -d 3 -p tcp -e 1040 -c 0 -i 3 -a 0 -x {0.0 3.0 -1 ------- null}
r -t 0.06792 -s 0 -d 2 -p tcp -e 1040 -c 0 -i 4 -a 0 -x {0.0 3.0 2 ------- null}
+ -t 0.06792 -s 2 -d 3 -p tcp -e 1040 -c 0 -i 4 -a 0 -x {0.0 3.0 2 ------- null}
- -t 0.06792 -s 2 -d 3 -p tcp -e 1040 -c 0 -i 4 -a 0 -x {0.0 3.0 2 ------- null}
h -t 0.06792 -s 2 -d 3 -p tcp -e 1040 -c 0 -i 4 -a 0 -x {0.0 3.0 -1 ------- null}
r -t 0.07128 -s 3 -d 4 -p tcp -e 40 -c 0 -i 1 -a 0 -x {1.0 4.0 0 ------- null}
+ -t 0.07128 -s 4 -d 3 -p ack -e 40 -c 0 -i 5 -a 0 -x {4.0 1.0 0 ------- null}
- -t 0.07128 -s 4 -d 3 -p ack -e 40 -c 0 -i 5 -a 0 -x {4.0 1.0 0 ------- null}
h -t 0.07128 -s 4 -d 3 -p ack -e 40 -c 0 -i 5 -a 0 -x {4.0 1.0 -1 ------- null}
r -t 0.07792 -s 2 -d 3 -p tcp -e 1040 -c 0 -i 3 -a 0 -x {0.0 3.0 1 ------- null}
+ -t 0.07792 -s 3 -d 2 -p ack -e 40 -c 0 -i 6 -a 0 -x {3.0 0.0 1 ------- null}
- -t 0.07792 -s 3 -d 2 -p ack -e 40 -c 0 -i 6 -a 0 -x {3.0 0.0 1 ------- null}
h -t 0.07792 -s 3 -d 2 -p ack -e 40 -c 0 -i 6 -a 0 -x {3.0 0.0 -1 ------- null}
r -t 0.08624 -s 2 -d 3 -p tcp -e 1040 -c 0 -i 4 -a 0 -x {0.0 3.0 2 ------- null}
+ -t 0.08624 -s 3 -d 2 -p ack -e 40 -c 0 -i 7 -a 0 -x {3.0 0.0 2 ------- null}
- -t 0.08624 -s 3 -d 2 -p ack -e 40 -c 0 -i 7 -a 0 -x {3.0 0.0 2 ------- null}
h -t 0.08624 -s 3 -d 2 -p ack -e 40 -c 0 -i 7 -a 0 -x {3.0 0.0 -1 ------- null}
r -t 0.08824 -s 3 -d 2 -p ack -e 40 -c 0 -i 6 -a 0 -x {3.0 0.0 1 ------- null}
+ -t 0.08824 -s 2 -d 0 -p ack -e 40 -c 0 -i 6 -a 0 -x {3.0 0.0 1 ------- null}
- -t 0.08824 -s 2 -d 0 -p ack -e 40 -c 0 -i 6 -a 0 -x {3.0 0.0 1 ------- null}
h -t 0.08824 -s 2 -d 0 -p ack -e 40 -c 0 -i 6 -a 0 -x {3.0 0.0 -1 ------- null}
r -t 0.09656 -s 3 -d 2 -p ack -e 40 -c 0 -i 7 -a 0 -x {3.0 0.0 2 ------- null}
+ -t 0.09656 -s 2 -d 0 -p ack -e 40 -c 0 -i 7 -a 0 -x {3.0 0.0 2 ------- null}
- -t 0.09656 -s 2 -d 0 -p ack -e 40 -c 0 -i 7 -a 0 -x {3.0 0.0 2 ------- null}
h -t 0.09656 -s 2 -d 0 -p ack -e 40 -c 0 -i 7 -a 0 -x {3.0 0.0 -1 ------- null}
r -t 0.09856 -s 2 -d 0 -p ack -e 40 -c 0 -i 6 -a 0 -x {3.0 0.0 1 ------- null}
+ -t 0.09856 -s 0 -d 2 -p tcp -e 1040 -c 0 -i 8 -a 0 -x {0.0 3.0 3 ------- null}
- -t 0.09856 -s 0 -d 2 -p tcp -e 1040 -c 0 -i 8 -a 0 -x {0.0 3.0 3 ------- null}
h -t 0.09856 -s 0 -d 2 -p tcp -e 1040 -c 0 -i 8 -a 0 -x {0.0 3.0 -1 ------- null}
+ -t 0.09856 -s 0 -d 2 -p tcp -e 1040 -c 0 -i 9 -a 0 -x {0.0 3.0 4 ------- null}
- -t 0.10688 -s 0 -d 2 -p tcp -e 1040 -c 0 -i 9 -a 0 -x {0.0 3.0 4 ------- null}
h -t 0.10688 -s 0 -d 2 -p tcp -e 1040 -c 0 -i 9 -a 0 -x {0.0 3.0 -1 ------- null}
r -t 0.10688 -s 2 -d 0 -p ack -e 40 -c 0 -i 7 -a 0 -x {3.0 0.0 2 ------- null}
+ -t 0.10688 -s 0 -d 2 -p tcp -e 1040 -c 0 -i 10 -a 0 -x {0.0 3.0 5 ------- null}
+ -t 0.10688 -s 0 -d 2 -p tcp -e 1040 -c 0 -i 11 -a 0 -x {0.0 3.0 6 ------- null}
- -t 0.1152 -s 0 -d 2 -p tcp -e 1040 -c 0 -i 10 -a 0 -x {0.0 3.0 5 ------- null}
h -t 0.1152 -s 0 -d 2 -p tcp -e 1040 -c 0 -i 10 -a 0 -x {0.0 3.0 -1 ------- null}
r -t 0.11688 -s 0 -d 2 -p tcp -e 1040 -c 0 -i 8 -a 0 -x {0.0 3.0 3 ------- null}
+ -t 0.11688 -s 2 -d 3 -p tcp -e 1040 -c 0 -i 8 -a 0 -x {0.0 3.0 3 ------- null}
- -t 0.11688 -s 2 -d 3 -p tcp -e 1040 -c 0 -i 8 -a 0 -x {0.0 3.0 3 ------- null}
h -t 0.11688 -s 2 -d 3 -p tcp -e 1040 -c 0 -i 8 -a 0 -x {0.0 3.0 -1 ------- null}
r -t 0.1216 -s 4 -d 3 -p ack -e 40 -c 0 -i 5 -a 0 -x {4.0 1.0 0 ------- null}
+ -t 0.1216 -s 3 -d 2 -p ack -e 40 -c 0 -i 5 -a 0 -x {4.0 1.0 0 ------- null}
- -t 0.1216 -s 3 -d 2 -p ack -e 40 -c 0 -i 5 -a 0 -x {4.0 1.0 0 ------- null}
h -t 0.1216 -s 3 -d 2 -p ack -e 40 -c 0 -i 5 -a 0 -x {4.0 1.0 -1 ------- null}
- -t 0.12352 -s 0 -d 2 -p tcp -e 1040 -c 0 -i 11 -a 0 -x {0.0 3.0 6 ------- null}
h -t 0.12352 -s 0 -d 2 -p tcp -e 1040 -c 0 -i 11 -a 0 -x {0.0 3.0 -1 ------- null}
r -t 0.1252 -s 0 -d 2 -p tcp -e 1040 -c 0 -i 9 -a 0 -x {0.0 3.0 4 ------- null}
+ -t 0.1252 -s 2 -d 3 -p tcp -e 1040 -c 0 -i 9 -a 0 -x {0.0 3.0 4 ------- null}
- -t 0.1252 -s 2 -d 3 -p tcp -e 1040 -c 0 -i 9 -a 0 -x {0.0 3.0 4 ------- null}
h -t 0.1252 -s 2 -d 3 -p tcp -e 1040 -c 0 -i 9 -a 0 -x {0.0 3.0 -1 ------- null}
r -t 0.13192 -s 3 -d 2 -p ack -e 40 -c 0 -i 5 -a 0 -x {4.0 1.0 0 ------- null}
+ -t 0.13192 -s 2 -d 1 -p ack -e 40 -c 0 -i 5 -a 0 -x {4.0 1.0 0 ------- null}
- -t 0.13192 -s 2 -d 1 -p ack -e 40 -c 0 -i 5 -a 0 -x {4.0 1.0 0 ------- null}
h -t 0.13192 -s 2 -d 1 -p ack -e 40 -c 0 -i 5 -a 0 -x {4.0 1.0 -1 ------- null}
r -t 0.13352 -s 0 -d 2 -p tcp -e 1040 -c 0 -i 10 -a 0 -x {0.0 3.0 5 ------- null}
+ -t 0.13352 -s 2 -d 3 -p tcp -e 1040 -c 0 -i 10 -a 0 -x {0.0 3.0 5 ------- null}
- -t 0.13352 -s 2 -d 3 -p tcp -e 1040 -c 0 -i 10 -a 0 -x {0.0 3.0 5 ------- null}
h -t 0.13352 -s 2 -d 3 -p tcp -e 1040 -c 0 -i 10 -a 0 -x {0.0 3.0 -1 ------- null}
r -t 0.1352 -s 2 -d 3 -p tcp -e 1040 -c 0 -i 8 -a 0 -x {0.0 3.0 3 ------- null}
+ -t 0.1352 -s 3 -d 2 -p ack -e 40 -c 0 -i 12 -a 0 -x {3.0 0.0 3 ------- null}
- -t 0.1352 -s 3 -d 2 -p ack -e 40 -c 0 -i 12 -a 0 -x {3.0 0.0 3 ------- null}
h -t 0.1352 -s 3 -d 2 -p ack -e 40 -c 0 -i 12 -a 0 -x {3.0 0.0 -1 ------- null}
r -t 0.14184 -s 0 -d 2 -p tcp -e 1040 -c 0 -i 11 -a 0 -x {0.0 3.0 6 ------- null}
+ -t 0.14184 -s 2 -d 3 -p tcp -e 1040 -c 0 -i 11 -a 0 -x {0.0 3.0 6 ------- null}
- -t 0.14184 -s 2 -d 3 -p tcp -e 1040 -c 0 -i 11 -a 0 -x {0.0 3.0 6 ------- null}
h -t 0.14184 -s 2 -d 3 -p tcp -e 1040 -c 0 -i 11 -a 0 -x {0.0 3.0 -1 ------- null}
r -t 0.14224 -s 2 -d 1 -p ack -e 40 -c 0 -i 5 -a 0 -x {4.0 1.0 0 ------- null}
+ -t 0.14224 -s 1 -d 2 -p tcp -e 1040 -c 0 -i 13 -a 0 -x {1.0 4.0 1 ------- null}
- -t 0.14224 -s 1 -d 2 -p tcp -e 1040 -c 0 -i 13 -a 0 -x {1.0 4.0 1 ------- null}
h -t 0.14224 -s 1 -d 2 -p tcp -e 1040 -c 0 -i 13 -a 0 -x {1.0 4.0 -1 ------- null}
+ -t 0.14224 -s 1 -d 2 -p tcp -e 1040 -c 0 -i 14 -a 0 -x {1.0 4.0 2 ------- null}
r -t 0.14352 -s 2 -d 3 -p tcp -e 1040 -c 0 -i 9 -a 0 -x {0.0 3.0 4 ------- null}
+ -t 0.14352 -s 3 -d 2 -p ack -e 40 -c 0 -i 15 -a 0 -x {3.0 0.0 4 ------- null}
- -t 0.14352 -s 3 -d 2 -p ack -e 40 -c 0 -i 15 -a 0 -x {3.0 0.0 4 ------- null}
h -t 0.14352 -s 3 -d 2 -p ack -e 40 -c 0 -i 15 -a 0 -x {3.0 0.0 -1 ------- null}
r -t 0.14552 -s 3 -d 2 -p ack -e 40 -c 0 -i 12 -a 0 -x {3.0 0.0 3 ------- null}
+ -t 0.14552 -s 2 -d 0 -p ack -e 40 -c 0 -i 12 -a 0 -x {3.0 0.0 3 ------- null}
- -t 0.14552 -s 2 -d 0 -p ack -e 40 -c 0 -i 12 -a 0 -x {3.0 0.0 3 ------- null}
h -t 0.14552 -s 2 -d 0 -p ack -e 40 -c 0 -i 12 -a 0 -x {3.0 0.0 -1 ------- null}
- -t 0.15056 -s 1 -d 2 -p tcp -e 1040 -c 0 -i 14 -a 0 -x {1.0 4.0 2 ------- null}
h -t 0.15056 -s 1 -d 2 -p tcp -e 1040 -c 0 -i 14 -a 0 -x {1.0 4.0 -1 ------- null}
r -t 0.15184 -s 2 -d 3 -p tcp -e 1040 -c 0 -i 10 -a 0 -x {0.0 3.0 5 ------- null}
+ -t 0.15184 -s 3 -d 2 -p ack -e 40 -c 0 -i 16 -a 0 -x {3.0 0.0 5 ------- null}
- -t 0.15184 -s 3 -d 2 -p ack -e 40 -c 0 -i 16 -a 0 -x {3.0 0.0 5 ------- null}
h -t 0.15184 -s 3 -d 2 -p ack -e 40 -c 0 -i 16 -a 0 -x {3.0 0.0 -1 ------- null}
r -t 0.15384 -s 3 -d 2 -p ack -e 40 -c 0 -i 15 -a 0 -x {3.0 0.0 4 ------- null}
+ -t 0.15384 -s 2 -d 0 -p ack -e 40 -c 0 -i 15 -a 0 -x {3.0 0.0 4 ------- null}
- -t 0.15384 -s 2 -d 0 -p ack -e 40 -c 0 -i 15 -a 0 -x {3.0 0.0 4 ------- null}
h -t 0.15384 -s 2 -d 0 -p ack -e 40 -c 0 -i 15 -a 0 -x {3.0 0.0 -1 ------- null}
r -t 0.15584 -s 2 -d 0 -p ack -e 40 -c 0 -i 12 -a 0 -x {3.0 0.0 3 ------- null}
+ -t 0.15584 -s 0 -d 2 -p tcp -e 1040 -c 0 -i 17 -a 0 -x {0.0 3.0 7 ------- null}
- -t 0.15584 -s 0 -d 2 -p tcp -e 1040 -c 0 -i 17 -a 0 -x {0.0 3.0 7 ------- null}
h -t 0.15584 -s 0 -d 2 -p tcp -e 1040 -c 0 -i 17 -a 0 -x {0.0 3.0 -1 ------- null}
+ -t 0.15584 -s 0 -d 2 -p tcp -e 1040 -c 0 -i 18 -a 0 -x {0.0 3.0 8 ------- null}
r -t 0.16016 -s 2 -d 3 -p tcp -e 1040 -c 0 -i 11 -a 0 -x {0.0 3.0 6 ------- null}
+ -t 0.16016 -s 3 -d 2 -p ack -e 40 -c 0 -i 19 -a 0 -x {3.0 0.0 6 ------- null}
- -t 0.16016 -s 3 -d 2 -p ack -e 40 -c 0 -i 19 -a 0 -x {3.0 0.0 6 ------- null}
h -t 0.16016 -s 3 -d 2 -p ack -e 40 -c 0 -i 19 -a 0 -x {3.0 0.0 -1 ------- null}
r -t 0.16056 -s 1 -d 2 -p tcp -e 1040 -c 0 -i 13 -a 0 -x {1.0 4.0 1 ------- null}
+ -t 0.16056 -s 2 -d 3 -p tcp -e 1040 -c 0 -i 13 -a 0 -x {1.0 4.0 1 ------- null}
- -t 0.16056 -s 2 -d 3 -p tcp -e 1040 -c 0 -i 13 -a 0 -x {1.0 4.0 1 ------- null}
h -t 0.16056 -s 2 -d 3 -p tcp -e 1040 -c 0 -i 13 -a 0 -x {1.0 4.0 -1 ------- null}
r -t 0.16216 -s 3 -d 2 -p ack -e 40 -c 0 -i 16 -a 0 -x {3.0 0.0 5 ------- null}
+ -t 0.16216 -s 2 -d 0 -p ack -e 40 -c 0 -i 16 -a 0 -x {3.0 0.0 5 ------- null}
- -t 0.16216 -s 2 -d 0 -p ack -e 40 -c 0 -i 16 -a 0 -x {3.0 0.0 5 ------- null}
h -t 0.16216 -s 2 -d 0 -p ack -e 40 -c 0 -i 16 -a 0 -x {3.0 0.0 -1 ------- null}
- -t 0.16416 -s 0 -d 2 -p tcp -e 1040 -c 0 -i 18 -a 0 -x {0.0 3.0 8 ------- null}
h -t 0.16416 -s 0 -d 2 -p tcp -e 1040 -c 0 -i 18 -a 0 -x {0.0 3.0 -1 ------- null}
r -t 0.16416 -s 2 -d 0 -p ack -e 40 -c 0 -i 15 -a 0 -x {3.0 0.0 4 ------- null}
+ -t 0.16416 -s 0 -d 2 -p tcp -e 1040 -c 0 -i 20 -a 0 -x {0.0 3.0 9 ------- null}
+ -t 0.16416 -s 0 -d 2 -p tcp -e 1040 -c 0 -i 21 -a 0 -x {0.0 3.0 10 ------- null}
r -t 0.16888 -s 1 -d 2 -p tcp -e 1040 -c 0 -i 14 -a 0 -x {1.0 4.0 2 ------- null}
+ -t 0.16888 -s 2 -d 3 -p tcp -e 1040 -c 0 -i 14 -a 0 -x {1.0 4.0 2 ------- null}
- -t 0.16888 -s 2 -d 3 -p tcp -e 1040 -c 0 -i 14 -a 0 -x {1.0 4.0 2 ------- null}
h -t 0.16888 -s 2 -d 3 -p tcp -e 1040 -c 0 -i 14 -a 0 -x {1.0 4.0 -1 ------- null}
r -t 0.17048 -s 3 -d 2 -p ack -e 40 -c 0 -i 19 -a 0 -x {3.0 0.0 6 ------- null}
+ -t 0.17048 -s 2 -d 0 -p ack -e 40 -c 0 -i 19 -a 0 -x {3.0 0.0 6 ------- null}
- -t 0.17048 -s 2 -d 0 -p ack -e 40 -c 0 -i 19 -a 0 -x {3.0 0.0 6 ------- null}
h -t 0.17048 -s 2 -d 0 -p ack -e 40 -c 0 -i 19 -a 0 -x {3.0 0.0 -1 ------- null}
- -t 0.17248 -s 0 -d 2 -p tcp -e 1040 -c 0 -i 20 -a 0 -x {0.0 3.0 9 ------- null}
h -t 0.17248 -s 0 -d 2 -p tcp -e 1040 -c 0 -i 20 -a 0 -x {0.0 3.0 -1 ------- null}
r -t 0.17248 -s 2 -d 0 -p ack -e 40 -c 0 -i 16 -a 0 -x {3.0 0.0 5 ------- null}
+ -t 0.17248 -s 0 -d 2 -p tcp -e 1040 -c 0 -i 22 -a 0 -x {0.0 3.0 11 ------- null}
+ -t 0.17248 -s 0 -d 2 -p tcp -e 1040 -c 0 -i 23 -a 0 -x {0.0 3.0 12 ------- null}
r -t 0.17416 -s 0 -d 2 -p tcp -e 1040 -c 0 -i 17 -a 0 -x {0.0 3.0 7 ------- null}
+ -t 0.17416 -s 2 -d 3 -p tcp -e 1040 -c 0 -i 17 -a 0 -x {0.0 3.0 7 ------- null}
- -t 0.1772 -s 2 -d 3 -p tcp -e 1040 -c 0 -i 17 -a 0 -x {0.0 3.0 7 ------- null}
h -t 0.1772 -s 2 -d 3 -p tcp -e 1040 -c 0 -i 17 -a 0 -x {0.0 3.0 -1 ------- null}
r -t 0.17888 -s 2 -d 3 -p tcp -e 1040 -c 0 -i 13 -a 0 -x {1.0 4.0 1 ------- null}
+ -t 0.17888 -s 3 -d 4 -p tcp -e 1040 -c 0 -i 13 -a 0 -x {1.0 4.0 1 ------- null}
- -t 0.17888 -s 3 -d 4 -p tcp -e 1040 -c 0 -i 13 -a 0 -x {1.0 4.0 1 ------- null}
h -t 0.17888 -s 3 -d 4 -p tcp -e 1040 -c 0 -i 13 -a 0 -x {1.0 4.0 -1 ------- null}
- -t 0.1808 -s 0 -d 2 -p tcp -e 1040 -c 0 -i 21 -a 0 -x {0.0 3.0 10 ------- null}
h -t 0.1808 -s 0 -d 2 -p tcp -e 1040 -c 0 -i 21 -a 0 -x {0.0 3.0 -1 ------- null}
r -t 0.1808 -s 2 -d 0 -p ack -e 40 -c 0 -i 19 -a 0 -x {3.0 0.0 6 ------- null}
+ -t 0.1808 -s 0 -d 2 -p tcp -e 1040 -c 0 -i 24 -a 0 -x {0.0 3.0 13 ------- null}
+ -t 0.1808 -s 0 -d 2 -p tcp -e 1040 -c 0 -i 25 -a 0 -x {0.0 3.0 14 ------- null}
r -t 0.18248 -s 0 -d 2 -p tcp -e 1040 -c 0 -i 18 -a 0 -x {0.0 3.0 8 ------- null}
+ -t 0.18248 -s 2 -d 3 -p tcp -e 1040 -c 0 -i 18 -a 0 -x {0.0 3.0 8 ------- null}
- -t 0.18552 -s 2 -d 3 -p tcp -e 1040 -c 0 -i 18 -a 0 -x {0.0 3.0 8 ------- null}
h -t 0.18552 -s 2 -d 3 -p tcp -e 1040 -c 0 -i 18 -a 0 -x {0.0 3.0 -1 ------- null}
r -t 0.1872 -s 2 -d 3 -p tcp -e 1040 -c 0 -i 14 -a 0 -x {1.0 4.0 2 ------- null}
+ -t 0.1872 -s 3 -d 4 -p tcp -e 1040 -c 0 -i 14 -a 0 -x {1.0 4.0 2 ------- null}
- -t 0.1872 -s 3 -d 4 -p tcp -e 1040 -c 0 -i 14 -a 0 -x {1.0 4.0 2 ------- null}
h -t 0.1872 -s 3 -d 4 -p tcp -e 1040 -c 0 -i 14 -a 0 -x {1.0 4.0 -1 ------- null}
- -t 0.18912 -s 0 -d 2 -p tcp -e 1040 -c 0 -i 22 -a 0 -x {0.0 3.0 11 ------- null}
h -t 0.18912 -s 0 -d 2 -p tcp -e 1040 -c 0 -i 22 -a 0 -x {0.0 3.0 -1 ------- null}
r -t 0.1908 -s 0 -d 2 -p tcp -e 1040 -c 0 -i 20 -a 0 -x {0.0 3.0 9 ------- null}
+ -t 0.1908 -s 2 -d 3 -p tcp -e 1040 -c 0 -i 20 -a 0 -x {0.0 3.0 9 ------- null}
- -t 0.19384 -s 2 -d 3 -p tcp -e 1040 -c 0 -i 20 -a 0 -x {0.0 3.0 9 ------- null}
h -t 0.19384 -s 2 -d 3 -p tcp -e 1040 -c 0 -i 20 -a 0 -x {0.0 3.0 -1 ------- null}
r -t 0.19552 -s 2 -d 3 -p tcp -e 1040 -c 0 -i 17 -a 0 -x {0.0 3.0 7 ------- null}
+ -t 0.19552 -s 3 -d 2 -p ack -e 40 -c 0 -i 26 -a 0 -x {3.0 0.0 7 ------- null}
- -t 0.19552 -s 3 -d 2 -p ack -e 40 -c 0 -i 26 -a 0 -x {3.0 0.0 7 ------- null}
h -t 0.19552 -s 3 -d 2 -p ack -e 40 -c 0 -i 26 -a 0 -x {3.0 0.0 -1 ------- null}
- -t 0.19744 -s 0 -d 2 -p tcp -e 1040 -c 0 -i 23 -a 0 -x {0.0 3.0 12 ------- null}
h -t 0.19744 -s 0 -d 2 -p tcp -e 1040 -c 0 -i 23 -a 0 -x {0.0 3.0 -1 ------- null}
r -t 0.19912 -s 0 -d 2 -p tcp -e 1040 -c 0 -i 21 -a 0 -x {0.0 3.0 10 ------- null}
+ -t 0.19912 -s 2 -d 3 -p tcp -e 1040 -c 0 -i 21 -a 0 -x {0.0 3.0 10 ------- null}
- -t 0.20216 -s 2 -d 3 -p tcp -e 1040 -c 0 -i 21 -a 0 -x {0.0 3.0 10 ------- null}
h -t 0.20216 -s 2 -d 3 -p tcp -e 1040 -c 0 -i 21 -a 0 -x {0.0 3.0 -1 ------- null}
r -t 0.20384 -s 2 -d 3 -p tcp -e 1040 -c 0 -i 18 -a 0 -x {0.0 3.0 8 ------- null}
+ -t 0.20384 -s 3 -d 2 -p ack -e 40 -c 0 -i 27 -a 0 -x {3.0 0.0 8 ------- null}
- -t 0.20384 -s 3 -d 2 -p ack -e 40 -c 0 -i 27 -a 0 -x {3.0 0.0 8 ------- null}
h -t 0.20384 -s 3 -d 2 -p ack -e 40 -c 0 -i 27 -a 0 -x {3.0 0.0 -1 ------- null}
- -t 0.20576 -s 0 -d 2 -p tcp -e 1040 -c 0 -i 24 -a 0 -x {0.0 3.0 13 ------- null}
h -t 0.20576 -s 0 -d 2 -p tcp -e 1040 -c 0 -i 24 -a 0 -x {0.0 3.0 -1 ------- null}
r -t 0.20584 -s 3 -d 2 -p ack -e 40 -c 0 -i 26 -a 0 -x {3.0 0.0 7 ------- null}
+ -t 0.20584 -s 2 -d 0 -p ack -e 40 -c 0 -i 26 -a 0 -x {3.0 0.0 7 ------- null}
- -t 0.20584 -s 2 -d 0 -p ack -e 40 -c 0 -i 26 -a 0 -x {3.0 0.0 7 ------- null}
h -t 0.20584 -s 2 -d 0 -p ack -e 40 -c 0 -i 26 -a 0 -x {3.0 0.0 -1 ------- null}
r -t 0.20744 -s 0 -d 2 -p tcp -e 1040 -c 0 -i 22 -a 0 -x {0.0 3.0 11 ------- null}
+ -t 0.20744 -s 2 -d 3 -p tcp -e 1040 -c 0 -i 22 -a 0 -x {0.0 3.0 11 ------- null}
- -t 0.21048 -s 2 -d 3 -p tcp -e 1040 -c 0 -i 22 -a 0 -x {0.0 3.0 11 ------- null}
h -t 0.21048 -s 2 -d 3 -p tcp -e 1040 -c 0 -i 22 -a 0 -x {0.0 3.0 -1 ------- null}
r -t 0.21216 -s 2 -d 3 -p tcp -e 1040 -c 0 -i 20 -a 0 -x {0.0 3.0 9 ------- null}
+ -t 0.21216 -s 3 -d 2 -p ack -e 40 -c 0 -i 28 -a 0 -x {3.0 0.0 9 ------- null}
- -t 0.21216 -s 3 -d 2 -p ack -e 40 -c 0 -i 28 -a 0 -x {3.0 0.0 9 ------- null}
h -t 0.21216 -s 3 -d 2 -p ack -e 40 -c 0 -i 28 -a 0 -x {3.0 0.0 -1 ------- null}
- -t 0.21408 -s 0 -d 2 -p tcp -e 1040 -c 0 -i 25 -a 0 -x {0.0 3.0 14 ------- null}
h -t 0.21408 -s 0 -d 2 -p tcp -e 1040 -c 0 -i 25 -a 0 -x {0.0 3.0 -1 ------- null}
r -t 0.21416 -s 3 -d 2 -p ack -e 40 -c 0 -i 27 -a 0 -x {3.0 0.0 8 ------- null}
+ -t 0.21416 -s 2 -d 0 -p ack -e 40 -c 0 -i 27 -a 0 -x {3.0 0.0 8 ------- null}
- -t 0.21416 -s 2 -d 0 -p ack -e 40 -c 0 -i 27 -a 0 -x {3.0 0.0 8 ------- null}
h -t 0.21416 -s 2 -d 0 -p ack -e 40 -c 0 -i 27 -a 0 -x {3.0 0.0 -1 ------- null}
r -t 0.21576 -s 0 -d 2 -p tcp -e 1040 -c 0 -i 23 -a 0 -x {0.0 3.0 12 ------- null}
+ -t 0.21576 -s 2 -d 3 -p tcp -e 1040 -c 0 -i 23 -a 0 -x {0.0 3.0 12 ------- null}
r -t 0.21616 -s 2 -d 0 -p ack -e 40 -c 0 -i 26 -a 0 -x {3.0 0.0 7 ------- null}
+ -t 0.21616 -s 0 -d 2 -p tcp -e 1040 -c 0 -i 29 -a 0 -x {0.0 3.0 15 ------- null}
+ -t 0.21616 -s 0 -d 2 -p tcp -e 1040 -c 0 -i 30 -a 0 -x {0.0 3.0 16 ------- null}
- -t 0.2188 -s 2 -d 3 -p tcp -e 1040 -c 0 -i 23 -a 0 -x {0.0 3.0 12 ------- null}
h -t 0.2188 -s 2 -d 3 -p tcp -e 1040 -c 0 -i 23 -a 0 -x {0.0 3.0 -1 ------- null}
r -t 0.22048 -s 2 -d 3 -p tcp -e 1040 -c 0 -i 21 -a 0 -x {0.0 3.0 10 ------- null}
+ -t 0.22048 -s 3 -d 2 -p ack -e 40 -c 0 -i 31 -a 0 -x {3.0 0.0 10 ------- null}
- -t 0.22048 -s 3 -d 2 -p ack -e 40 -c 0 -i 31 -a 0 -x {3.0 0.0 10 ------- null}
h -t 0.22048 -s 3 -d 2 -p ack -e 40 -c 0 -i 31 -a 0 -x {3.0 0.0 -1 ------- null}
- -t 0.2224 -s 0 -d 2 -p tcp -e 1040 -c 0 -i 29 -a 0 -x {0.0 3.0 15 ------- null}
h -t 0.2224 -s 0 -d 2 -p tcp -e 1040 -c 0 -i 29 -a 0 -x {0.0 3.0 -1 ------- null}
r -t 0.22248 -s 3 -d 2 -p ack -e 40 -c 0 -i 28 -a 0 -x {3.0 0.0 9 ------- null}
+ -t 0.22248 -s 2 -d 0 -p ack -e 40 -c 0 -i 28 -a 0 -x {3.0 0.0 9 ------- null}
- -t 0.22248 -s 2 -d 0 -p ack -e 40 -c 0 -i 28 -a 0 -x {3.0 0.0 9 ------- null}
h -t 0.22248 -s 2 -d 0 -p ack -e 40 -c 0 -i 28 -a 0 -x {3.0 0.0 -1 ------- null}
r -t 0.22408 -s 0 -d 2 -p tcp -e 1040 -c 0 -i 24 -a 0 -x {0.0 3.0 13 ------- null}
+ -t 0.22408 -s 2 -d 3 -p tcp -e 1040 -c 0 -i 24 -a 0 -x {0.0 3.0 13 ------- null}
r -t 0.22448 -s 2 -d 0 -p ack -e 40 -c 0 -i 27 -a 0 -x {3.0 0.0 8 ------- null}
+ -t 0.22448 -s 0 -d 2 -p tcp -e 1040 -c 0 -i 32 -a 0 -x {0.0 3.0 17 ------- null}
+ -t 0.22448 -s 0 -d 2 -p tcp -e 1040 -c 0 -i 33 -a 0 -x {0.0 3.0 18 ------- null}
- -t 0.22712 -s 2 -d 3 -p tcp -e 1040 -c 0 -i 24 -a 0 -x {0.0 3.0 13 ------- null}
h -t 0.22712 -s 2 -d 3 -p tcp -e 1040 -c 0 -i 24 -a 0 -x {0.0 3.0 -1 ------- null}
r -t 0.2288 -s 2 -d 3 -p tcp -e 1040 -c 0 -i 22 -a 0 -x {0.0 3.0 11 ------- null}
+ -t 0.2288 -s 3 -d 2 -p ack -e 40 -c 0 -i 34 -a 0 -x {3.0 0.0 11 ------- null}
- -t 0.2288 -s 3 -d 2 -p ack -e 40 -c 0 -i 34 -a 0 -x {3.0 0.0 11 ------- null}
h -t 0.2288 -s 3 -d 2 -p ack -e 40 -c 0 -i 34 -a 0 -x {3.0 0.0 -1 ------- null}
- -t 0.23072 -s 0 -d 2 -p tcp -e 1040 -c 0 -i 30 -a 0 -x {0.0 3.0 16 ------- null}
h -t 0.23072 -s 0 -d 2 -p tcp -e 1040 -c 0 -i 30 -a 0 -x {0.0 3.0 -1 ------- null}
r -t 0.2308 -s 3 -d 2 -p ack -e 40 -c 0 -i 31 -a 0 -x {3.0 0.0 10 ------- null}
+ -t 0.2308 -s 2 -d 0 -p ack -e 40 -c 0 -i 31 -a 0 -x {3.0 0.0 10 ------- null}
- -t 0.2308 -s 2 -d 0 -p ack -e 40 -c 0 -i 31 -a 0 -x {3.0 0.0 10 ------- null}
h -t 0.2308 -s 2 -d 0 -p ack -e 40 -c 0 -i 31 -a 0 -x {3.0 0.0 -1 ------- null}
r -t 0.2324 -s 0 -d 2 -p tcp -e 1040 -c 0 -i 25 -a 0 -x {0.0 3.0 14 ------- null}
+ -t 0.2324 -s 2 -d 3 -p tcp -e 1040 -c 0 -i 25 -a 0 -x {0.0 3.0 14 ------- null}
r -t 0.2328 -s 2 -d 0 -p ack -e 40 -c 0 -i 28 -a 0 -x {3.0 0.0 9 ------- null}
+ -t 0.2328 -s 0 -d 2 -p tcp -e 1040 -c 0 -i 35 -a 0 -x {0.0 3.0 19 ------- null}
+ -t 0.2328 -s 0 -d 2 -p tcp -e 1040 -c 0 -i 36 -a 0 -x {0.0 3.0 20 ------- null}
- -t 0.23544 -s 2 -d 3 -p tcp -e 1040 -c 0 -i 25 -a 0 -x {0.0 3.0 14 ------- null}
h -t 0.23544 -s 2 -d 3 -p tcp -e 1040 -c 0 -i 25 -a 0 -x {0.0 3.0 -1 ------- null}
r -t 0.23712 -s 2 -d 3 -p tcp -e 1040 -c 0 -i 23 -a 0 -x {0.0 3.0 12 ------- null}
+ -t 0.23712 -s 3 -d 2 -p ack -e 40 -c 0 -i 37 -a 0 -x {3.0 0.0 12 ------- null}
- -t 0.23712 -s 3 -d 2 -p ack -e 40 -c 0 -i 37 -a 0 -x {3.0 0.0 12 ------- null}
h -t 0.23712 -s 3 -d 2 -p ack -e 40 -c 0 -i 37 -a 0 -x {3.0 0.0 -1 ------- null}
r -t 0.2372 -s 3 -d 4 -p tcp -e 1040 -c 0 -i 13 -a 0 -x {1.0 4.0 1 ------- null}
+ -t 0.2372 -s 4 -d 3 -p ack -e 40 -c 0 -i 38 -a 0 -x {4.0 1.0 1 ------- null}
- -t 0.2372 -s 4 -d 3 -p ack -e 40 -c 0 -i 38 -a 0 -x {4.0 1.0 1 ------- null}
h -t 0.2372 -s 4 -d 3 -p ack -e 40 -c 0 -i 38 -a 0 -x {4.0 1.0 -1 ------- null}
- -t 0.23904 -s 0 -d 2 -p tcp -e 1040 -c 0 -i 32 -a 0 -x {0.0 3.0 17 ------- null}
h -t 0.23904 -s 0 -d 2 -p tcp -e 1040 -c 0 -i 32 -a 0 -x {0.0 3.0 -1 ------- null}
r -t 0.23912 -s 3 -d 2 -p ack -e 40 -c 0 -i 34 -a 0 -x {3.0 0.0 11 ------- null}
+ -t 0.23912 -s 2 -d 0 -p ack -e 40 -c 0 -i 34 -a 0 -x {3.0 0.0 11 ------- null}
- -t 0.23912 -s 2 -d 0 -p ack -e 40 -c 0 -i 34 -a 0 -x {3.0 0.0 11 ------- null}
h -t 0.23912 -s 2 -d 0 -p ack -e 40 -c 0 -i 34 -a 0 -x {3.0 0.0 -1 ------- null}
r -t 0.24072 -s 0 -d 2 -p tcp -e 1040 -c 0 -i 29 -a 0 -x {0.0 3.0 15 ------- null}
+ -t 0.24072 -s 2 -d 3 -p tcp -e 1040 -c 0 -i 29 -a 0 -x {0.0 3.0 15 ------- null}
r -t 0.24112 -s 2 -d 0 -p ack -e 40 -c 0 -i 31 -a 0 -x {3.0 0.0 10 ------- null}
+ -t 0.24112 -s 0 -d 2 -p tcp -e 1040 -c 0 -i 39 -a 0 -x {0.0 3.0 21 ------- null}
+ -t 0.24112 -s 0 -d 2 -p tcp -e 1040 -c 0 -i 40 -a 0 -x {0.0 3.0 22 ------- null}
- -t 0.24376 -s 2 -d 3 -p tcp -e 1040 -c 0 -i 29 -a 0 -x {0.0 3.0 15 ------- null}
h -t 0.24376 -s 2 -d 3 -p tcp -e 1040 -c 0 -i 29 -a 0 -x {0.0 3.0 -1 ------- null}
r -t 0.24544 -s 2 -d 3 -p tcp -e 1040 -c 0 -i 24 -a 0 -x {0.0 3.0 13 ------- null}
+ -t 0.24544 -s 3 -d 2 -p ack -e 40 -c 0 -i 41 -a 0 -x {3.0 0.0 13 ------- null}
- -t 0.24544 -s 3 -d 2 -p ack -e 40 -c 0 -i 41 -a 0 -x {3.0 0.0 13 ------- null}
h -t 0.24544 -s 3 -d 2 -p ack -e 40 -c 0 -i 41 -a 0 -x {3.0 0.0 -1 ------- null}
r -t 0.24552 -s 3 -d 4 -p tcp -e 1040 -c 0 -i 14 -a 0 -x {1.0 4.0 2 ------- null}
+ -t 0.24552 -s 4 -d 3 -p ack -e 40 -c 0 -i 42 -a 0 -x {4.0 1.0 2 ------- null}
- -t 0.24552 -s 4 -d 3 -p ack -e 40 -c 0 -i 42 -a 0 -x {4.0 1.0 2 ------- null}
h -t 0.24552 -s 4 -d 3 -p ack -e 40 -c 0 -i 42 -a 0 -x {4.0 1.0 -1 ------- null}
- -t 0.24736 -s 0 -d 2 -p tcp -e 1040 -c 0 -i 33 -a 0 -x {0.0 3.0 18 ------- null}
h -t 0.24736 -s 0 -d 2 -p tcp -e 1040 -c 0 -i 33 -a 0 -x {0.0 3.0 -1 ------- null}
r -t 0.24744 -s 3 -d 2 -p ack -e 40 -c 0 -i 37 -a 0 -x {3.0 0.0 12 ------- null}
+ -t 0.24744 -s 2 -d 0 -p ack -e 40 -c 0 -i 37 -a 0 -x {3.0 0.0 12 ------- null}
- -t 0.24744 -s 2 -d 0 -p ack -e 40 -c 0 -i 37 -a 0 -x {3.0 0.0 12 ------- null}
h -t 0.24744 -s 2 -d 0 -p ack -e 40 -c 0 -i 37 -a 0 -x {3.0 0.0 -1 ------- null}
r -t 0.24904 -s 0 -d 2 -p tcp -e 1040 -c 0 -i 30 -a 0 -x {0.0 3.0 16 ------- null}
+ -t 0.24904 -s 2 -d 3 -p tcp -e 1040 -c 0 -i 30 -a 0 -x {0.0 3.0 16 ------- null}
r -t 0.24944 -s 2 -d 0 -p ack -e 40 -c 0 -i 34 -a 0 -x {3.0 0.0 11 ------- null}
+ -t 0.24944 -s 0 -d 2 -p tcp -e 1040 -c 0 -i 43 -a 0 -x {0.0 3.0 23 ------- null}
+ -t 0.24944 -s 0 -d 2 -p tcp -e 1040 -c 0 -i 44 -a 0 -x {0.0 3.0 24 ------- null}
- -t 0.25208 -s 2 -d 3 -p tcp -e 1040 -c 0 -i 30 -a 0 -x {0.0 3.0 16 ------- null}
h -t 0.25208 -s 2 -d 3 -p tcp -e 1040 -c 0 -i 30 -a 0 -x {0.0 3.0 -1 ------- null}
r -t 0.25376 -s 2 -d 3 -p tcp -e 1040 -c 0 -i 25 -a 0 -x {0.0 3.0 14 ------- null}
+ -t 0.25376 -s 3 -d 2 -p ack -e 40 -c 0 -i 45 -a 0 -x {3.0 0.0 14 ------- null}
- -t 0.25376 -s 3 -d 2 -p ack -e 40 -c 0 -i 45 -a 0 -x {3.0 0.0 14 ------- null}
h -t 0.25376 -s 3 -d 2 -p ack -e 40 -c 0 -i 45 -a 0 -x {3.0 0.0 -1 ------- null}
- -t 0.25568 -s 0 -d 2 -p tcp -e 1040 -c 0 -i 35 -a 0 -x {0.0 3.0 19 ------- null}
h -t 0.25568 -s 0 -d 2 -p tcp -e 1040 -c 0 -i 35 -a 0 -x {0.0 3.0 -1 ------- null}
r -t 0.25576 -s 3 -d 2 -p ack -e 40 -c 0 -i 41 -a 0 -x {3.0 0.0 13 ------- null}
+ -t 0.25576 -s 2 -d 0 -p ack -e 40 -c 0 -i 41 -a 0 -x {3.0 0.0 13 ------- null}
- -t 0.25576 -s 2 -d 0 -p ack -e 40 -c 0 -i 41 -a 0 -x {3.0 0.0 13 ------- null}
h -t 0.25576 -s 2 -d 0 -p ack -e 40 -c 0 -i 41 -a 0 -x {3.0 0.0 -1 ------- null}
r -t 0.25736 -s 0 -d 2 -p tcp -e 1040 -c 0 -i 32 -a 0 -x {0.0 3.0 17 ------- null}
+ -t 0.25736 -s 2 -d 3 -p tcp -e 1040 -c 0 -i 32 -a 0 -x {0.0 3.0 17 ------- null}
r -t 0.25776 -s 2 -d 0 -p ack -e 40 -c 0 -i 37 -a 0 -x {3.0 0.0 12 ------- null}
+ -t 0.25776 -s 0 -d 2 -p tcp -e 1040 -c 0 -i 46 -a 0 -x {0.0 3.0 25 ------- null}
+ -t 0.25776 -s 0 -d 2 -p tcp -e 1040 -c 0 -i 47 -a 0 -x {0.0 3.0 26 ------- null}
- -t 0.2604 -s 2 -d 3 -p tcp -e 1040 -c 0 -i 32 -a 0 -x {0.0 3.0 17 ------- null}
h -t 0.2604 -s 2 -d 3 -p tcp -e 1040 -c 0 -i 32 -a 0 -x {0.0 3.0 -1 ------- null}
r -t 0.26208 -s 2 -d 3 -p tcp -e 1040 -c 0 -i 29 -a 0 -x {0.0 3.0 15 ------- null}
+ -t 0.26208 -s 3 -d 2 -p ack -e 40 -c 0 -i 48 -a 0 -x {3.0 0.0 15 ------- null}
- -t 0.26208 -s 3 -d 2 -p ack -e 40 -c 0 -i 48 -a 0 -x {3.0 0.0 15 ------- null}
h -t 0.26208 -s 3 -d 2 -p ack -e 40 -c 0 -i 48 -a 0 -x {3.0 0.0 -1 ------- null}
- -t 0.264 -s 0 -d 2 -p tcp -e 1040 -c 0 -i 36 -a 0 -x {0.0 3.0 20 ------- null}
h -t 0.264 -s 0 -d 2 -p tcp -e 1040 -c 0 -i 36 -a 0 -x {0.0 3.0 -1 ------- null}
r -t 0.26408 -s 3 -d 2 -p ack -e 40 -c 0 -i 45 -a 0 -x {3.0 0.0 14 ------- null}
+ -t 0.26408 -s 2 -d 0 -p ack -e 40 -c 0 -i 45 -a 0 -x {3.0 0.0 14 ------- null}
- -t 0.26408 -s 2 -d 0 -p ack -e 40 -c 0 -i 45 -a 0 -x {3.0 0.0 14 ------- null}
h -t 0.26408 -s 2 -d 0 -p ack -e 40 -c 0 -i 45 -a 0 -x {3.0 0.0 -1 ------- null}
r -t 0.26568 -s 0 -d 2 -p tcp -e 1040 -c 0 -i 33 -a 0 -x {0.0 3.0 18 ------- null}
+ -t 0.26568 -s 2 -d 3 -p tcp -e 1040 -c 0 -i 33 -a 0 -x {0.0 3.0 18 ------- null}
r -t 0.26608 -s 2 -d 0 -p ack -e 40 -c 0 -i 41 -a 0 -x {3.0 0.0 13 ------- null}
+ -t 0.26608 -s 0 -d 2 -p tcp -e 1040 -c 0 -i 49 -a 0 -x {0.0 3.0 27 ------- null}
+ -t 0.26608 -s 0 -d 2 -p tcp -e 1040 -c 0 -i 50 -a 0 -x {0.0 3.0 28 ------- null}
- -t 0.26872 -s 2 -d 3 -p tcp -e 1040 -c 0 -i 33 -a 0 -x {0.0 3.0 18 ------- null}
h -t 0.26872 -s 2 -d 3 -p tcp -e 1040 -c 0 -i 33 -a 0 -x {0.0 3.0 -1 ------- null}
r -t 0.2704 -s 2 -d 3 -p tcp -e 1040 -c 0 -i 30 -a 0 -x {0.0 3.0 16 ------- null}
+ -t 0.2704 -s 3 -d 2 -p ack -e 40 -c 0 -i 51 -a 0 -x {3.0 0.0 16 ------- null}
- -t 0.2704 -s 3 -d 2 -p ack -e 40 -c 0 -i 51 -a 0 -x {3.0 0.0 16 ------- null}
h -t 0.2704 -s 3 -d 2 -p ack -e 40 -c 0 -i 51 -a 0 -x {3.0 0.0 -1 ------- null}
- -t 0.27232 -s 0 -d 2 -p tcp -e 1040 -c 0 -i 39 -a 0 -x {0.0 3.0 21 ------- null}
h -t 0.27232 -s 0 -d 2 -p tcp -e 1040 -c 0 -i 39 -a 0 -x {0.0 3.0 -1 ------- null}
r -t 0.2724 -s 3 -d 2 -p ack -e 40 -c 0 -i 48 -a 0 -x {3.0 0.0 15 ------- null}
+ -t 0.2724 -s 2 -d 0 -p ack -e 40 -c 0 -i 48 -a 0 -x {3.0 0.0 15 ------- null}
- -t 0.2724 -s 2 -d 0 -p ack -e 40 -c 0 -i 48 -a 0 -x {3.0 0.0 15 ------- null}
h -t 0.2724 -s 2 -d 0 -p ack -e 40 -c 0 -i 48 -a 0 -x {3.0 0.0 -1 ------- null}
r -t 0.274 -s 0 -d 2 -p tcp -e 1040 -c 0 -i 35 -a 0 -x {0.0 3.0 19 ------- null}
+ -t 0.274 -s 2 -d 3 -p tcp -e 1040 -c 0 -i 35 -a 0 -x {0.0 3.0 19 ------- null}
r -t 0.2744 -s 2 -d 0 -p ack -e 40 -c 0 -i 45 -a 0 -x {3.0 0.0 14 ------- null}
+ -t 0.2744 -s 0 -d 2 -p tcp -e 1040 -c 0 -i 52 -a 0 -x {0.0 3.0 29 ------- null}
+ -t 0.2744 -s 0 -d 2 -p tcp -e 1040 -c 0 -i 53 -a 0 -x {0.0 3.0 30 ------- null}
- -t 0.27704 -s 2 -d 3 -p tcp -e 1040 -c 0 -i 35 -a 0 -x {0.0 3.0 19 ------- null}
h -t 0.27704 -s 2 -d 3 -p tcp -e 1040 -c 0 -i 35 -a 0 -x {0.0 3.0 -1 ------- null}
r -t 0.27872 -s 2 -d 3 -p tcp -e 1040 -c 0 -i 32 -a 0 -x {0.0 3.0 17 ------- null}
+ -t 0.27872 -s 3 -d 2 -p ack -e 40 -c 0 -i 54 -a 0 -x {3.0 0.0 17 ------- null}
- -t 0.27872 -s 3 -d 2 -p ack -e 40 -c 0 -i 54 -a 0 -x {3.0 0.0 17 ------- null}
h -t 0.27872 -s 3 -d 2 -p ack -e 40 -c 0 -i 54 -a 0 -x {3.0 0.0 -1 ------- null}
- -t 0.28064 -s 0 -d 2 -p tcp -e 1040 -c 0 -i 40 -a 0 -x {0.0 3.0 22 ------- null}
h -t 0.28064 -s 0 -d 2 -p tcp -e 1040 -c 0 -i 40 -a 0 -x {0.0 3.0 -1 ------- null}
r -t 0.28072 -s 3 -d 2 -p ack -e 40 -c 0 -i 51 -a 0 -x {3.0 0.0 16 ------- null}